 Entering Gaussian System, Link 0=g09
 Initial command:
 /opt/software/Gaussian/g09/l1.exe "/mnt/ls15/scratch/users/songlin3/Gau-12294.inp" -scrdir="/mnt/ls15/scratch/users/songlin3/"
 Entering Link 1 = /opt/software/Gaussian/g09/l1.exe PID=     12295.
  
 Copyright (c) 1988,1990,1992,1993,1995,1998,2003,2009,2013,
            Gaussian, Inc.  All Rights Reserved.
  
 This is part of the Gaussian(R) 09 program.  It is based on
 the Gaussian(R) 03 system (copyright 2003, Gaussian, Inc.),
 the Gaussian(R) 98 system (copyright 1998, Gaussian, Inc.),
 the Gaussian(R) 94 system (copyright 1995, Gaussian, Inc.),
 the Gaussian 92(TM) system (copyright 1992, Gaussian, Inc.),
 the Gaussian 90(TM) system (copyright 1990, Gaussian, Inc.),
 the Gaussian 88(TM) system (copyright 1988, Gaussian, Inc.),
 the Gaussian 86(TM) system (copyright 1986, Carnegie Mellon
 University), and the Gaussian 82(TM) system (copyright 1983,
 Carnegie Mellon University). Gaussian is a federally registered
 trademark of Gaussian, Inc.
  
 This software contains proprietary and confidential information,
 including trade secrets, belonging to Gaussian, Inc.
  
 This software is provided under written license and may be
 used, copied, transmitted, or stored only in accord with that
 written license.
  
 The following legend is applicable only to US Government
 contracts under FAR:
  
                    RESTRICTED RIGHTS LEGEND
  
 Use, reproduction and disclosure by the US Government is
 subject to restrictions as set forth in subparagraphs (a)
 and (c) of the Commercial Computer Software - Restricted
 Rights clause in FAR 52.227-19.
  
 Gaussian, Inc.
 340 Quinnipiac St., Bldg. 40, Wallingford CT 06492
  
  
 ---------------------------------------------------------------
 Warning -- This program may not be used in any manner that
 competes with the business of Gaussian, Inc. or will provide
 assistance to any competitor of Gaussian, Inc.  The licensee
 of this program is prohibited from giving any competitor of
 Gaussian, Inc. access to this program.  By using this program,
 the user acknowledges that Gaussian, Inc. is engaged in the
 business of creating and licensing software in the field of
 computational chemistry and represents and warrants to the
 licensee that it is not a competitor of Gaussian, Inc. and that
 it will not use this program in any manner prohibited above.
 ---------------------------------------------------------------
  

 Cite this work as:
 Gaussian 09, Revision D.01,
 M. J. Frisch, G. W. Trucks, H. B. Schlegel, G. E. Scuseria, 
 M. A. Robb, J. R. Cheeseman, G. Scalmani, V. Barone, B. Mennucci, 
 G. A. Petersson, H. Nakatsuji, M. Caricato, X. Li, H. P. Hratchian, 
 A. F. Izmaylov, J. Bloino, G. Zheng, J. L. Sonnenberg, M. Hada, 
 M. Ehara, K. Toyota, R. Fukuda, J. Hasegawa, M. Ishida, T. Nakajima, 
 Y. Honda, O. Kitao, H. Nakai, T. Vreven, J. A. Montgomery, Jr., 
 J. E. Peralta, F. Ogliaro, M. Bearpark, J. J. Heyd, E. Brothers, 
 K. N. Kudin, V. N. Staroverov, T. Keith, R. Kobayashi, J. Normand, 
 K. Raghavachari, A. Rendell, J. C. Burant, S. S. Iyengar, J. Tomasi, 
 M. Cossi, N. Rega, J. M. Millam, M. Klene, J. E. Knox, J. B. Cross, 
 V. Bakken, C. Adamo, J. Jaramillo, R. Gomperts, R. E. Stratmann, 
 O. Yazyev, A. J. Austin, R. Cammi, C. Pomelli, J. W. Ochterski, 
 R. L. Martin, K. Morokuma, V. G. Zakrzewski, G. A. Voth, 
 P. Salvador, J. J. Dannenberg, S. Dapprich, A. D. Daniels, 
 O. Farkas, J. B. Foresman, J. V. Ortiz, J. Cioslowski, 
 and D. J. Fox, Gaussian, Inc., Wallingford CT, 2013.
 
 ******************************************
 Gaussian 09:  ES64L-G09RevD.01 24-Apr-2013
                29-Nov-2017 
 ******************************************
 %RWF=myrwf
 %NoSave
 %chk=esp.chk
 %NprocShared=4
 Will use up to    4 processors via shared memory.
 %Mem=16GB
 ----------------------------------------------------------------------
 #HF/6-31G* SCF=tight Test Pop=MK iop(6/33=2) iop(6/42=6) opt # iop(6/5
 0=1)
 ----------------------------------------------------------------------
 1/18=20,19=15,38=1/1,3;
 2/9=110,12=2,17=6,18=5,40=1/2;
 3/5=1,6=6,7=1,11=9,16=1,25=1,30=1,71=1/1,2,3;
 4//1;
 5/5=2,32=2,38=5/2;
 6/7=2,8=2,9=2,10=2,15=8,20=1,28=1,33=2,42=6,50=1/1,2;
 7//1,2,3,16;
 1/18=20,19=15/3(2);
 2/9=110/2;
 99//99;
 2/9=110/2;
 3/5=1,6=6,7=1,11=9,16=1,25=1,30=1,71=1/1,2,3;
 4/5=5,16=3,69=1/1;
 5/5=2,32=2,38=5/2;
 7//1,2,3,16;
 1/18=20,19=15/3(-5);
 2/9=110/2;
 6/7=2,8=2,9=2,10=2,15=8,19=2,20=1,28=1,33=2,42=6,50=1/1,2;
 99/9=1/99;
 ---------------------
 remark line goes here
 ---------------------
 Symbolic Z-matrix:
 Charge =  0 Multiplicity = 1
 H                     5.12344  -0.55438  -1.28726 
 C                     4.16431  -1.05251  -1.27609 
 H                     4.33967  -2.12136  -1.2032 
 H                     3.6384   -0.85291  -2.20254 
 C                     3.39349  -0.59862  -0.05441 
 O                     3.94412  -0.29669   0.96856 
 H                    -3.66461   1.31495  -0.8019 
 H                    -1.7983    2.90372  -0.74556 
 C                    -2.69826   1.00189  -0.4547 
 C                    -1.63529   1.89188  -0.41968 
 Cl                   -3.81027  -1.43664  -0.06082 
 H                     0.4216    3.47306  -0.35925 
 C                    -2.49362  -0.29243  -0.03194 
 C                    -0.37671   1.51583   0.02488 
 H                     1.07753   2.71493   1.07607 
 C                     0.74597   2.52812   0.05916 
 C                    -1.24915  -0.69705   0.41874 
 C                    -0.18707   0.19351   0.44909 
 H                    -1.11193  -1.70976   0.75046 
 H                     1.60716   2.18817  -0.50383 
 H                     1.64974   0.42621   1.55747 
 C                     1.16187  -0.30174   0.92801 
 H                     1.02886  -1.19721   1.52667 
 N                     2.0453   -0.56804  -0.19427 
 H                     1.63971  -0.94606  -1.02006 
 

 GradGradGradGradGradGradGradGradGradGradGradGradGradGradGradGradGradGrad
 Berny optimization.
 Initialization pass.
                           ----------------------------
                           !    Initial Parameters    !
                           ! (Angstroms and Degrees)  !
 --------------------------                            --------------------------
 ! Name  Definition              Value          Derivative Info.                !
 --------------------------------------------------------------------------------
 ! R1    R(1,2)                  1.0808         estimate D2E/DX2                !
 ! R2    R(2,3)                  1.0856         estimate D2E/DX2                !
 ! R3    R(2,4)                  1.0838         estimate D2E/DX2                !
 ! R4    R(2,5)                  1.5142         estimate D2E/DX2                !
 ! R5    R(5,6)                  1.2003         estimate D2E/DX2                !
 ! R6    R(5,24)                 1.3558         estimate D2E/DX2                !
 ! R7    R(7,9)                  1.0735         estimate D2E/DX2                !
 ! R8    R(8,10)                 1.0755         estimate D2E/DX2                !
 ! R9    R(9,10)                 1.3868         estimate D2E/DX2                !
 ! R10   R(9,13)                 1.3769         estimate D2E/DX2                !
 ! R11   R(10,14)                1.3867         estimate D2E/DX2                !
 ! R12   R(11,13)                1.7446         estimate D2E/DX2                !
 ! R13   R(12,16)                1.0831         estimate D2E/DX2                !
 ! R14   R(13,17)                1.384          estimate D2E/DX2                !
 ! R15   R(14,16)                1.5121         estimate D2E/DX2                !
 ! R16   R(14,18)                1.4016         estimate D2E/DX2                !
 ! R17   R(15,16)                1.0858         estimate D2E/DX2                !
 ! R18   R(16,20)                1.0836         estimate D2E/DX2                !
 ! R19   R(17,18)                1.3864         estimate D2E/DX2                !
 ! R20   R(17,19)                1.0744         estimate D2E/DX2                !
 ! R21   R(18,22)                1.5147         estimate D2E/DX2                !
 ! R22   R(21,22)                1.079          estimate D2E/DX2                !
 ! R23   R(22,23)                1.0853         estimate D2E/DX2                !
 ! R24   R(22,24)                1.4529         estimate D2E/DX2                !
 ! R25   R(24,25)                0.9946         estimate D2E/DX2                !
 ! A1    A(1,2,3)              108.1267         estimate D2E/DX2                !
 ! A2    A(1,2,4)              109.6876         estimate D2E/DX2                !
 ! A3    A(1,2,5)              108.7806         estimate D2E/DX2                !
 ! A4    A(3,2,4)              108.4868         estimate D2E/DX2                !
 ! A5    A(3,2,5)              108.8559         estimate D2E/DX2                !
 ! A6    A(4,2,5)              112.7956         estimate D2E/DX2                !
 ! A7    A(2,5,6)              121.9704         estimate D2E/DX2                !
 ! A8    A(2,5,24)             115.4523         estimate D2E/DX2                !
 ! A9    A(6,5,24)             122.5753         estimate D2E/DX2                !
 ! A10   A(7,9,10)             120.7313         estimate D2E/DX2                !
 ! A11   A(7,9,13)             120.4789         estimate D2E/DX2                !
 ! A12   A(10,9,13)            118.7895         estimate D2E/DX2                !
 ! A13   A(8,10,9)             118.6829         estimate D2E/DX2                !
 ! A14   A(8,10,14)            119.3302         estimate D2E/DX2                !
 ! A15   A(9,10,14)            121.9867         estimate D2E/DX2                !
 ! A16   A(9,13,11)            119.9519         estimate D2E/DX2                !
 ! A17   A(9,13,17)            120.5593         estimate D2E/DX2                !
 ! A18   A(11,13,17)           119.4888         estimate D2E/DX2                !
 ! A19   A(10,14,16)           119.9727         estimate D2E/DX2                !
 ! A20   A(10,14,18)           118.4024         estimate D2E/DX2                !
 ! A21   A(16,14,18)           121.6206         estimate D2E/DX2                !
 ! A22   A(12,16,14)           110.6678         estimate D2E/DX2                !
 ! A23   A(12,16,15)           107.6458         estimate D2E/DX2                !
 ! A24   A(12,16,20)           108.1201         estimate D2E/DX2                !
 ! A25   A(14,16,15)           111.293          estimate D2E/DX2                !
 ! A26   A(14,16,20)           111.6101         estimate D2E/DX2                !
 ! A27   A(15,16,20)           107.3306         estimate D2E/DX2                !
 ! A28   A(13,17,18)           120.5421         estimate D2E/DX2                !
 ! A29   A(13,17,19)           119.4009         estimate D2E/DX2                !
 ! A30   A(18,17,19)           120.0566         estimate D2E/DX2                !
 ! A31   A(14,18,17)           119.7195         estimate D2E/DX2                !
 ! A32   A(14,18,22)           121.6459         estimate D2E/DX2                !
 ! A33   A(17,18,22)           118.6298         estimate D2E/DX2                !
 ! A34   A(18,22,21)           111.5033         estimate D2E/DX2                !
 ! A35   A(18,22,23)           109.5741         estimate D2E/DX2                !
 ! A36   A(18,22,24)           110.9283         estimate D2E/DX2                !
 ! A37   A(21,22,23)           106.8748         estimate D2E/DX2                !
 ! A38   A(21,22,24)           107.4197         estimate D2E/DX2                !
 ! A39   A(23,22,24)           110.4484         estimate D2E/DX2                !
 ! A40   A(5,24,22)            121.9444         estimate D2E/DX2                !
 ! A41   A(5,24,25)            118.8528         estimate D2E/DX2                !
 ! A42   A(22,24,25)           117.5831         estimate D2E/DX2                !
 ! D1    D(1,2,5,6)            -31.5186         estimate D2E/DX2                !
 ! D2    D(1,2,5,24)           148.9814         estimate D2E/DX2                !
 ! D3    D(3,2,5,6)             86.0871         estimate D2E/DX2                !
 ! D4    D(3,2,5,24)           -93.4129         estimate D2E/DX2                !
 ! D5    D(4,2,5,6)           -153.4496         estimate D2E/DX2                !
 ! D6    D(4,2,5,24)            27.0504         estimate D2E/DX2                !
 ! D7    D(2,5,24,22)          172.9104         estimate D2E/DX2                !
 ! D8    D(2,5,24,25)            7.774          estimate D2E/DX2                !
 ! D9    D(6,5,24,22)           -6.5862         estimate D2E/DX2                !
 ! D10   D(6,5,24,25)         -171.7226         estimate D2E/DX2                !
 ! D11   D(7,9,10,8)             0.1255         estimate D2E/DX2                !
 ! D12   D(7,9,10,14)          179.9424         estimate D2E/DX2                !
 ! D13   D(13,9,10,8)         -179.6926         estimate D2E/DX2                !
 ! D14   D(13,9,10,14)           0.1243         estimate D2E/DX2                !
 ! D15   D(7,9,13,11)            0.0891         estimate D2E/DX2                !
 ! D16   D(7,9,13,17)         -179.86           estimate D2E/DX2                !
 ! D17   D(10,9,13,11)         179.9077         estimate D2E/DX2                !
 ! D18   D(10,9,13,17)          -0.0414         estimate D2E/DX2                !
 ! D19   D(8,10,14,16)           0.5361         estimate D2E/DX2                !
 ! D20   D(8,10,14,18)         179.7989         estimate D2E/DX2                !
 ! D21   D(9,10,14,16)        -179.2796         estimate D2E/DX2                !
 ! D22   D(9,10,14,18)          -0.0168         estimate D2E/DX2                !
 ! D23   D(9,13,17,18)          -0.1485         estimate D2E/DX2                !
 ! D24   D(9,13,17,19)         179.5942         estimate D2E/DX2                !
 ! D25   D(11,13,17,18)        179.9022         estimate D2E/DX2                !
 ! D26   D(11,13,17,19)         -0.3552         estimate D2E/DX2                !
 ! D27   D(10,14,16,12)         -4.0088         estimate D2E/DX2                !
 ! D28   D(10,14,16,15)        115.6439         estimate D2E/DX2                !
 ! D29   D(10,14,16,20)       -124.4705         estimate D2E/DX2                !
 ! D30   D(18,14,16,12)        176.7527         estimate D2E/DX2                !
 ! D31   D(18,14,16,15)        -63.5946         estimate D2E/DX2                !
 ! D32   D(18,14,16,20)         56.291          estimate D2E/DX2                !
 ! D33   D(10,14,18,17)         -0.1728         estimate D2E/DX2                !
 ! D34   D(10,14,18,22)        179.0238         estimate D2E/DX2                !
 ! D35   D(16,14,18,17)        179.0773         estimate D2E/DX2                !
 ! D36   D(16,14,18,22)         -1.7261         estimate D2E/DX2                !
 ! D37   D(13,17,18,14)          0.2565         estimate D2E/DX2                !
 ! D38   D(13,17,18,22)       -178.9643         estimate D2E/DX2                !
 ! D39   D(19,17,18,14)       -179.4845         estimate D2E/DX2                !
 ! D40   D(19,17,18,22)          1.2947         estimate D2E/DX2                !
 ! D41   D(14,18,22,21)         41.7306         estimate D2E/DX2                !
 ! D42   D(14,18,22,23)        159.8442         estimate D2E/DX2                !
 ! D43   D(14,18,22,24)        -77.9498         estimate D2E/DX2                !
 ! D44   D(17,18,22,21)       -139.0644         estimate D2E/DX2                !
 ! D45   D(17,18,22,23)        -20.9507         estimate D2E/DX2                !
 ! D46   D(17,18,22,24)        101.2553         estimate D2E/DX2                !
 ! D47   D(18,22,24,5)         158.3356         estimate D2E/DX2                !
 ! D48   D(18,22,24,25)        -36.3484         estimate D2E/DX2                !
 ! D49   D(21,22,24,5)          36.2423         estimate D2E/DX2                !
 ! D50   D(21,22,24,25)       -158.4417         estimate D2E/DX2                !
 ! D51   D(23,22,24,5)         -79.969          estimate D2E/DX2                !
 ! D52   D(23,22,24,25)         85.347          estimate D2E/DX2                !
 --------------------------------------------------------------------------------
 Trust Radius=3.00D-01 FncErr=1.00D-07 GrdErr=1.00D-07
 Number of steps in this run=    129 maximum allowed number of steps=    150.
 GradGradGradGradGradGradGradGradGradGradGradGradGradGradGradGradGradGrad

                          Input orientation:                          
 ---------------------------------------------------------------------
 Center     Atomic      Atomic             Coordinates (Angstroms)
 Number     Number       Type             X           Y           Z
 ---------------------------------------------------------------------
      1          1           0        5.123438   -0.554383   -1.287260
      2          6           0        4.164312   -1.052505   -1.276091
      3          1           0        4.339667   -2.121357   -1.203197
      4          1           0        3.638397   -0.852912   -2.202539
      5          6           0        3.393487   -0.598624   -0.054410
      6          8           0        3.944122   -0.296688    0.968557
      7          1           0       -3.664611    1.314945   -0.801902
      8          1           0       -1.798304    2.903723   -0.745564
      9          6           0       -2.698259    1.001894   -0.454699
     10          6           0       -1.635288    1.891876   -0.419681
     11         17           0       -3.810268   -1.436636   -0.060823
     12          1           0        0.421599    3.473063   -0.359253
     13          6           0       -2.493622   -0.292432   -0.031936
     14          6           0       -0.376712    1.515833    0.024883
     15          1           0        1.077525    2.714934    1.076074
     16          6           0        0.745969    2.528120    0.059155
     17          6           0       -1.249152   -0.697054    0.418738
     18          6           0       -0.187067    0.193506    0.449087
     19          1           0       -1.111933   -1.709758    0.750459
     20          1           0        1.607162    2.188167   -0.503825
     21          1           0        1.649740    0.426211    1.557468
     22          6           0        1.161874   -0.301739    0.928014
     23          1           0        1.028861   -1.197208    1.526666
     24          7           0        2.045297   -0.568042   -0.194271
     25          1           0        1.639714   -0.946063   -1.020056
 ---------------------------------------------------------------------
                    Distance matrix (angstroms):
                    1          2          3          4          5
     1  H    0.000000
     2  C    1.080821   0.000000
     3  H    1.754073   1.085591   0.000000
     4  H    1.769803   1.083850   1.760516   0.000000
     5  C    2.124760   1.514161   2.129245   2.176948   0.000000
     6  O    2.558496   2.378695   2.863981   3.233992   1.200344
     7  H    8.997764   8.192784   8.719958   7.745664   7.351003
     8  H    7.756445   7.175374   7.945788   6.767038   6.300700
     9  C    8.018360   7.210418   7.736107   6.829968   6.311201
    10  C    7.239976   6.560349   7.240167   6.206786   5.623575
    11  Cl   9.060553   8.075788   8.258045   7.772406   7.252337
    12  H    6.260097   5.943842   6.881935   5.697329   5.050117
    13  C    7.724251   6.815696   7.170123   6.528960   5.895109
    14  C    6.021558   5.376783   6.081247   5.166572   4.323380
    15  H    5.713422   5.408746   6.263095   5.480592   4.197778
    16  C    5.520588   5.127263   6.010477   4.991270   4.098631
    17  C    6.598537   5.683695   5.991178   5.548290   4.667725
    18  C    5.636994   4.843891   5.346022   4.770774   3.701533
    19  H    6.660859   5.690136   5.805698   5.658623   4.709697
    20  H    4.527643   4.199686   5.150505   4.032333   3.340529
    21  H    4.595718   4.066784   4.620290   4.441685   2.586328
    22  C    4.545906   3.799521   4.236914   4.029556   2.456297
    23  H    5.009687   4.208021   4.389492   4.564558   2.906813
    24  N    3.266460   2.428016   2.948704   2.579197   1.355770
    25  H    3.515842   2.539779   2.950356   2.324151   2.031971
                    6          7          8          9         10
     6  O    0.000000
     7  H    7.976510   0.000000
     8  H    6.793843   2.451630   0.000000
     9  C    6.916155   1.073493   2.124023   0.000000
    10  C    6.151978   2.144084   1.075457   1.386795   0.000000
    11  Cl   7.905041   2.853351   4.832762   2.708898   3.992281
    12  H    5.327501   4.642254   2.324081   3.981118   2.595108
    13  C    6.515025   2.132539   3.347856   1.376911   2.378715
    14  C    4.779682   3.396205   2.130904   2.425637   1.386744
    15  H    4.159183   5.289104   3.409457   4.419764   3.205318
    16  C    4.362881   4.654721   2.694805   3.802120   2.510871
    17  C    5.237622   3.372320   3.823972   2.397755   2.748564
    18  C    4.192477   3.862112   3.371728   2.788621   2.395112
    19  H    5.254334   4.251449   4.898306   3.364802   3.822943
    20  H    3.715346   5.351912   3.488217   4.466129   3.257046
    21  H    2.476608   5.882075   4.830220   4.825487   4.104717
    22  C    2.782548   5.375987   4.673168   4.302555   3.801624
    23  H    3.101801   5.810492   5.474808   4.759546   4.519778
    24  N    2.243064   6.043005   5.208680   5.003383   4.432687
    25  H    3.112325   5.770235   5.168768   4.788755   4.374927
                   11         12         13         14         15
    11  Cl   0.000000
    12  H    6.488675   0.000000
    13  C    1.744590   4.773322   0.000000
    14  C    4.529208   2.148397   2.784665   0.000000
    15  H    6.512955   1.750760   4.798440   2.158159   0.000000
    16  C    6.040942   1.083143   4.296366   1.512056   1.085796
    17  C    2.708556   4.559227   1.384027   2.411046   4.181767
    18  C    4.005616   3.432110   2.405767   1.401593   2.889620
    19  H    2.830863   5.517682   2.128384   3.386953   4.947489
    20  H    6.533299   1.754257   4.815857   2.160398   1.747593
    21  H    5.991724   3.803348   4.495565   2.764525   2.407784
    22  C    5.194996   4.056377   3.779450   2.546853   3.021482
    23  H    5.098492   5.073154   3.956734   3.404641   3.938306
    24  N    5.921141   4.358227   4.550176   3.202607   3.650793
    25  H    5.555456   4.631322   4.299777   3.349448   4.255904
                   16         17         18         19         20
    16  C    0.000000
    17  C    3.809404   0.000000
    18  C    2.544214   1.386378   0.000000
    19  H    4.678601   1.074447   2.137432   0.000000
    20  H    1.083590   4.163430   2.847099   4.915336   0.000000
    21  H    2.734916   3.310892   2.157897   3.583359   2.712053
    22  C    2.989313   2.495733   1.514688   2.680344   2.906557
    23  H    4.013936   2.582054   2.138631   2.334139   3.989748
    24  N    3.367298   3.353479   2.444855   3.487711   2.807931
    25  H    3.746121   3.236925   2.606555   3.359987   3.176626
                   21         22         23         24         25
    21  H    0.000000
    22  C    1.078952   0.000000
    23  H    1.738370   1.085330   0.000000
    24  N    2.052704   1.452886   2.095380   0.000000
    25  H    2.920080   2.106766   2.630971   0.994645   0.000000
 Stoichiometry    C10H12ClNO
 Framework group  C1[X(C10H12ClNO)]
 Deg. of freedom    69
 Full point group                 C1      NOp   1
 Largest Abelian subgroup         C1      NOp   1
 Largest concise Abelian subgroup C1      NOp   1
                         Standard orientation:                         
 ---------------------------------------------------------------------
 Center     Atomic      Atomic             Coordinates (Angstroms)
 Number     Number       Type             X           Y           Z
 ---------------------------------------------------------------------
      1          1           0       -5.123438   -0.554383    1.287260
      2          6           0       -4.164312   -1.052505    1.276091
      3          1           0       -4.339667   -2.121357    1.203197
      4          1           0       -3.638397   -0.852912    2.202539
      5          6           0       -3.393487   -0.598624    0.054410
      6          8           0       -3.944122   -0.296688   -0.968557
      7          1           0        3.664611    1.314945    0.801902
      8          1           0        1.798304    2.903723    0.745564
      9          6           0        2.698259    1.001894    0.454699
     10          6           0        1.635288    1.891876    0.419681
     11         17           0        3.810268   -1.436636    0.060823
     12          1           0       -0.421599    3.473063    0.359253
     13          6           0        2.493622   -0.292432    0.031936
     14          6           0        0.376712    1.515833   -0.024883
     15          1           0       -1.077525    2.714934   -1.076074
     16          6           0       -0.745969    2.528120   -0.059155
     17          6           0        1.249152   -0.697054   -0.418738
     18          6           0        0.187067    0.193506   -0.449087
     19          1           0        1.111933   -1.709758   -0.750459
     20          1           0       -1.607162    2.188167    0.503825
     21          1           0       -1.649740    0.426211   -1.557468
     22          6           0       -1.161874   -0.301739   -0.928014
     23          1           0       -1.028861   -1.197208   -1.526666
     24          7           0       -2.045297   -0.568042    0.194271
     25          1           0       -1.639714   -0.946063    1.020056
 ---------------------------------------------------------------------
 Rotational constants (GHZ):      1.3293987      0.3245450      0.2817285
 Standard basis: 6-31G(d) (6D, 7F)
 There are   223 symmetry adapted cartesian basis functions of A   symmetry.
 There are   223 symmetry adapted basis functions of A   symmetry.
   223 basis functions,   436 primitive gaussians,   223 cartesian basis functions
    52 alpha electrons       52 beta electrons
       nuclear repulsion energy       839.9065022051 Hartrees.
 NAtoms=   25 NActive=   25 NUniq=   25 SFac= 1.00D+00 NAtFMM=   60 NAOKFM=F Big=F
 Integral buffers will be    131072 words long.
 Raffenetti 1 integral format.
 Two-electron integral symmetry is turned on.
 One-electron integrals computed using PRISM.
 NBasis=   223 RedAO= T EigKep=  3.61D-04  NBF=   223
 NBsUse=   223 1.00D-06 EigRej= -1.00D+00 NBFU=   223
 ExpMin= 1.43D-01 ExpMax= 2.52D+04 ExpMxC= 3.78D+03 IAcc=1 IRadAn=         1 AccDes= 0.00D+00
 Harris functional with IExCor=  205 and IRadAn=       1 diagonalized for initial guess.
 HarFok:  IExCor=  205 AccDes= 0.00D+00 IRadAn=         1 IDoV= 1 UseB2=F ITyADJ=14
 ICtDFT=  3500011 ScaDFX=  1.000000  1.000000  1.000000  1.000000
 FoFCou: FMM=F IPFlag=           0 FMFlag=      100000 FMFlg1=           0
         NFxFlg=           0 DoJE=T BraDBF=F KetDBF=T FulRan=T
         wScrn=  0.000000 ICntrl=     500 IOpCl=  0 I1Cent=   200000004 NGrid=           0
         NMat0=    1 NMatS0=      1 NMatT0=    0 NMatD0=    1 NMtDS0=    0 NMtDT0=    0
 Petite list used in FoFCou.
 Keep R1 ints in memory in canonical form, NReq=317703139.
 Requested convergence on RMS density matrix=1.00D-08 within 128 cycles.
 Requested convergence on MAX density matrix=1.00D-06.
 Requested convergence on             energy=1.00D-06.
 No special actions if energy rises.
 SCF Done:  E(RHF) =  -974.489690208     A.U. after   15 cycles
            NFock= 15  Conv=0.39D-08     -V/T= 2.0008

 **********************************************************************

            Population analysis using the SCF density.

 **********************************************************************

 Orbital symmetries:
 BldTbl:  Degeneracy threshold= 1.00D-02
       Occupied  (A) (A) (A) (A) (A) (A) (A) (A) (A) (A) (A) (A)
                 (A) (A) (A) (A) (A) (A) (A) (A) (A) (A) (A) (A)
                 (A) (A) (A) (A) (A) (A) (A) (A) (A) (A) (A) (A)
                 (A) (A) (A) (A) (A) (A) (A) (A) (A) (A) (A) (A)
                 (A) (A) (A) (A)
       Virtual   (A) (A) (A) (A) (A) (A) (A) (A) (A) (A) (A) (A)
                 (A) (A) (A) (A) (A) (A) (A) (A) (A) (A) (A) (A)
                 (A) (A) (A) (A) (A) (A) (A) (A) (A) (A) (A) (A)
                 (A) (A) (A) (A) (A) (A) (A) (A) (A) (A) (A) (A)
                 (A) (A) (A) (A) (A) (A) (A) (A) (A) (A) (A) (A)
                 (A) (A) (A) (A) (A) (A) (A) (A) (A) (A) (A) (A)
                 (A) (A) (A) (A) (A) (A) (A) (A) (A) (A) (A) (A)
                 (A) (A) (A) (A) (A) (A) (A) (A) (A) (A) (A) (A)
                 (A) (A) (A) (A) (A) (A) (A) (A) (A) (A) (A) (A)
                 (A) (A) (A) (A) (A) (A) (A) (A) (A) (A) (A) (A)
                 (A) (A) (A) (A) (A) (A) (A) (A) (A) (A) (A) (A)
                 (A) (A) (A) (A) (A) (A) (A) (A) (A) (A) (A) (A)
                 (A) (A) (A) (A) (A) (A) (A) (A) (A) (A) (A) (A)
                 (A) (A) (A) (A) (A) (A) (A) (A) (A) (A) (A) (A)
                 (A) (A) (A)
 The electronic state is 1-A.
 Alpha  occ. eigenvalues -- -104.82785 -20.52270 -15.58862 -11.34916 -11.30288
 Alpha  occ. eigenvalues --  -11.27240 -11.25595 -11.25470 -11.25169 -11.25100
 Alpha  occ. eigenvalues --  -11.24574 -11.23493 -11.22912 -10.56118  -8.03058
 Alpha  occ. eigenvalues --   -8.02727  -8.02723  -1.39161  -1.24071  -1.19590
 Alpha  occ. eigenvalues --   -1.13118  -1.05852  -1.03612  -1.01124  -0.94934
 Alpha  occ. eigenvalues --   -0.92092  -0.83987  -0.79902  -0.79505  -0.69730
 Alpha  occ. eigenvalues --   -0.68543  -0.67513  -0.65810  -0.64030  -0.62255
 Alpha  occ. eigenvalues --   -0.59290  -0.58832  -0.58479  -0.57531  -0.56454
 Alpha  occ. eigenvalues --   -0.56208  -0.55358  -0.53824  -0.51768  -0.50040
 Alpha  occ. eigenvalues --   -0.49755  -0.46214  -0.45438  -0.42116  -0.39362
 Alpha  occ. eigenvalues --   -0.35098  -0.32884
 Alpha virt. eigenvalues --    0.12142   0.12896   0.19492   0.20434   0.22136
 Alpha virt. eigenvalues --    0.24253   0.26275   0.27610   0.27866   0.29618
 Alpha virt. eigenvalues --    0.30464   0.31158   0.32077   0.32933   0.34447
 Alpha virt. eigenvalues --    0.35916   0.37654   0.39566   0.40043   0.41783
 Alpha virt. eigenvalues --    0.42451   0.45368   0.47543   0.50701   0.52543
 Alpha virt. eigenvalues --    0.53102   0.59040   0.59818   0.62065   0.62939
 Alpha virt. eigenvalues --    0.63536   0.67148   0.70449   0.72166   0.73186
 Alpha virt. eigenvalues --    0.74213   0.75134   0.76248   0.76853   0.78600
 Alpha virt. eigenvalues --    0.80113   0.81449   0.82094   0.83457   0.84197
 Alpha virt. eigenvalues --    0.84833   0.87077   0.87929   0.90018   0.91332
 Alpha virt. eigenvalues --    0.94040   0.95845   0.97448   0.99156   1.00332
 Alpha virt. eigenvalues --    1.01049   1.02217   1.06288   1.07155   1.08187
 Alpha virt. eigenvalues --    1.08876   1.10981   1.11879   1.12660   1.13673
 Alpha virt. eigenvalues --    1.14075   1.15249   1.15371   1.17699   1.18891
 Alpha virt. eigenvalues --    1.19239   1.19472   1.20153   1.21244   1.22718
 Alpha virt. eigenvalues --    1.23139   1.24379   1.25839   1.28530   1.29584
 Alpha virt. eigenvalues --    1.33970   1.35418   1.36000   1.38643   1.41031
 Alpha virt. eigenvalues --    1.43923   1.45873   1.49047   1.49406   1.54871
 Alpha virt. eigenvalues --    1.57870   1.61241   1.62835   1.63150   1.66136
 Alpha virt. eigenvalues --    1.68010   1.70927   1.72609   1.74074   1.75373
 Alpha virt. eigenvalues --    1.75617   1.82648   1.85042   1.94804   1.95762
 Alpha virt. eigenvalues --    2.02816   2.06025   2.07513   2.09904   2.11275
 Alpha virt. eigenvalues --    2.12329   2.13536   2.15036   2.15860   2.20081
 Alpha virt. eigenvalues --    2.22794   2.23376   2.25588   2.26878   2.29059
 Alpha virt. eigenvalues --    2.33508   2.37218   2.38958   2.41202   2.43480
 Alpha virt. eigenvalues --    2.46417   2.49758   2.51922   2.52289   2.56280
 Alpha virt. eigenvalues --    2.56931   2.57772   2.59570   2.63253   2.63716
 Alpha virt. eigenvalues --    2.67021   2.69094   2.71680   2.73380   2.78338
 Alpha virt. eigenvalues --    2.80174   2.81023   2.92570   2.94561   2.98706
 Alpha virt. eigenvalues --    3.00310   3.05252   3.07175   3.07810   3.14347
 Alpha virt. eigenvalues --    3.14876   3.16746   3.25204   3.32380   3.37855
 Alpha virt. eigenvalues --    3.46192   3.55760   3.78491   4.38876   4.47087
 Alpha virt. eigenvalues --    4.48890   4.52966   4.55921   4.62228   4.66309
 Alpha virt. eigenvalues --    4.72177   4.77626   4.80112   4.86714   4.92930
 Alpha virt. eigenvalues --    5.15953
          Condensed to atoms (all electrons):
               1          2          3          4          5          6
     1  H    0.466252   0.384072  -0.018190  -0.021820  -0.030493   0.002648
     2  C    0.384072   5.261389   0.377560   0.375052   0.371515  -0.072699
     3  H   -0.018190   0.377560   0.490345  -0.024070  -0.026917   0.000063
     4  H   -0.021820   0.375052  -0.024070   0.527042  -0.037896   0.002445
     5  C   -0.030493   0.371515  -0.026917  -0.037896   4.139398   0.613555
     6  O    0.002648  -0.072699   0.000063   0.002445   0.613555   8.148407
     7  H    0.000000   0.000000   0.000000   0.000000   0.000000   0.000000
     8  H    0.000000   0.000000   0.000000   0.000000   0.000000   0.000000
     9  C    0.000000   0.000000   0.000000   0.000000   0.000000   0.000000
    10  C    0.000000   0.000000   0.000000   0.000000   0.000000   0.000000
    11  Cl   0.000000   0.000000   0.000000   0.000000   0.000000   0.000000
    12  H    0.000000   0.000000   0.000000   0.000000  -0.000002   0.000000
    13  C    0.000000   0.000000   0.000000   0.000000   0.000001   0.000000
    14  C    0.000000  -0.000006   0.000000  -0.000005   0.000119   0.000031
    15  H    0.000000  -0.000002   0.000000   0.000000   0.000015  -0.000016
    16  C    0.000001  -0.000002   0.000000   0.000001  -0.000033  -0.000028
    17  C    0.000000  -0.000006   0.000000   0.000001  -0.000134  -0.000010
    18  C    0.000002  -0.000067  -0.000005  -0.000025   0.004025   0.000604
    19  H    0.000000   0.000001   0.000000   0.000000   0.000003   0.000001
    20  H   -0.000007   0.000037   0.000001   0.000015   0.000555  -0.000020
    21  H    0.000010   0.000292  -0.000012  -0.000029  -0.001733   0.006217
    22  C   -0.000088   0.004750  -0.000195   0.000008  -0.026648   0.006370
    23  H   -0.000005  -0.000109   0.000041   0.000000  -0.000800   0.001288
    24  N    0.003632  -0.117467   0.000488   0.005695   0.266962  -0.106094
    25  H    0.000065  -0.000234  -0.000002   0.000603  -0.017321   0.002357
               7          8          9         10         11         12
     1  H    0.000000   0.000000   0.000000   0.000000   0.000000   0.000000
     2  C    0.000000   0.000000   0.000000   0.000000   0.000000   0.000000
     3  H    0.000000   0.000000   0.000000   0.000000   0.000000   0.000000
     4  H    0.000000   0.000000   0.000000   0.000000   0.000000   0.000000
     5  C    0.000000   0.000000   0.000000   0.000000   0.000000  -0.000002
     6  O    0.000000   0.000000   0.000000   0.000000   0.000000   0.000000
     7  H    0.439073  -0.001697   0.381413  -0.024855   0.000387  -0.000007
     8  H   -0.001697   0.464889  -0.030827   0.381667  -0.000102   0.002650
     9  C    0.381413  -0.030827   4.938130   0.527029  -0.066144   0.000317
    10  C   -0.024855   0.381667   0.527029   4.923308   0.002707  -0.002388
    11  Cl   0.000387  -0.000102  -0.066144   0.002707  16.919543   0.000000
    12  H   -0.000007   0.002650   0.000317  -0.002388   0.000000   0.513164
    13  C   -0.029330   0.002506   0.542774  -0.040923   0.212678  -0.000009
    14  C    0.001816  -0.028622  -0.043401   0.575454   0.000262  -0.042193
    15  H    0.000002   0.000073  -0.000095  -0.000079   0.000000  -0.024669
    16  C   -0.000105  -0.002983   0.003838  -0.043231   0.000005   0.396707
    17  C    0.002215   0.000330  -0.046613  -0.042805  -0.066933  -0.000069
    18  C    0.000318   0.002505  -0.033418  -0.033942   0.002564   0.003065
    19  H   -0.000115   0.000012   0.002267   0.000223   0.000447   0.000002
    20  H    0.000002   0.000075  -0.000080   0.000857   0.000000  -0.024075
    21  H    0.000000  -0.000001  -0.000003   0.000083   0.000002   0.000007
    22  C    0.000006  -0.000114   0.000106   0.003172  -0.000115   0.000182
    23  H    0.000000   0.000002  -0.000019  -0.000069  -0.000012   0.000002
    24  N    0.000000   0.000001   0.000032  -0.000144   0.000002   0.000056
    25  H    0.000000   0.000001  -0.000026  -0.000051   0.000001   0.000001
              13         14         15         16         17         18
     1  H    0.000000   0.000000   0.000000   0.000001   0.000000   0.000002
     2  C    0.000000  -0.000006  -0.000002  -0.000002  -0.000006  -0.000067
     3  H    0.000000   0.000000   0.000000   0.000000   0.000000  -0.000005
     4  H    0.000000  -0.000005   0.000000   0.000001   0.000001  -0.000025
     5  C    0.000001   0.000119   0.000015  -0.000033  -0.000134   0.004025
     6  O    0.000000   0.000031  -0.000016  -0.000028  -0.000010   0.000604
     7  H   -0.029330   0.001816   0.000002  -0.000105   0.002215   0.000318
     8  H    0.002506  -0.028622   0.000073  -0.002983   0.000330   0.002505
     9  C    0.542774  -0.043401  -0.000095   0.003838  -0.046613  -0.033418
    10  C   -0.040923   0.575454  -0.000079  -0.043231  -0.042805  -0.033942
    11  Cl   0.212678   0.000262   0.000000   0.000005  -0.066933   0.002564
    12  H   -0.000009  -0.042193  -0.024669   0.396707  -0.000069   0.003065
    13  C    5.031710  -0.031621   0.000019   0.000076   0.517731  -0.040711
    14  C   -0.031621   4.793170  -0.038801   0.321122  -0.040557   0.571267
    15  H    0.000019  -0.038801   0.514970   0.391982   0.000005  -0.002990
    16  C    0.000076   0.321122   0.391982   5.111677   0.003442  -0.047347
    17  C    0.517731  -0.040557   0.000005   0.003442   4.990210   0.547234
    18  C   -0.040711   0.571267  -0.002990  -0.047347   0.547234   4.906631
    19  H   -0.028781   0.002069   0.000001  -0.000099   0.380410  -0.028466
    20  H    0.000014  -0.036534  -0.029479   0.391966   0.000010  -0.004221
    21  H   -0.000046  -0.004985   0.001784  -0.000399   0.002308  -0.038273
    22  C    0.002857  -0.045332  -0.000413  -0.009254  -0.042205   0.331750
    23  H    0.000277   0.003425  -0.000006   0.000072  -0.003244  -0.050673
    24  N   -0.000079   0.000234  -0.000202  -0.001302  -0.002005  -0.056155
    25  H   -0.000017   0.001006   0.000008  -0.000046   0.002034  -0.000968
              19         20         21         22         23         24
     1  H    0.000000  -0.000007   0.000010  -0.000088  -0.000005   0.003632
     2  C    0.000001   0.000037   0.000292   0.004750  -0.000109  -0.117467
     3  H    0.000000   0.000001  -0.000012  -0.000195   0.000041   0.000488
     4  H    0.000000   0.000015  -0.000029   0.000008   0.000000   0.005695
     5  C    0.000003   0.000555  -0.001733  -0.026648  -0.000800   0.266962
     6  O    0.000001  -0.000020   0.006217   0.006370   0.001288  -0.106094
     7  H   -0.000115   0.000002   0.000000   0.000006   0.000000   0.000000
     8  H    0.000012   0.000075  -0.000001  -0.000114   0.000002   0.000001
     9  C    0.002267  -0.000080  -0.000003   0.000106  -0.000019   0.000032
    10  C    0.000223   0.000857   0.000083   0.003172  -0.000069  -0.000144
    11  Cl   0.000447   0.000000   0.000002  -0.000115  -0.000012   0.000002
    12  H    0.000002  -0.024075   0.000007   0.000182   0.000002   0.000056
    13  C   -0.028781   0.000014  -0.000046   0.002857   0.000277  -0.000079
    14  C    0.002069  -0.036534  -0.004985  -0.045332   0.003425   0.000234
    15  H    0.000001  -0.029479   0.001784  -0.000413  -0.000006  -0.000202
    16  C   -0.000099   0.391966  -0.000399  -0.009254   0.000072  -0.001302
    17  C    0.380410   0.000010   0.002308  -0.042205  -0.003244  -0.002005
    18  C   -0.028466  -0.004221  -0.038273   0.331750  -0.050673  -0.056155
    19  H    0.442717   0.000001  -0.000003  -0.002442   0.002505   0.000124
    20  H    0.000001   0.506051  -0.001693  -0.002043   0.000088   0.004022
    21  H   -0.000003  -0.001693   0.464173   0.416430  -0.030055  -0.043619
    22  C   -0.002442  -0.002043   0.416430   4.904745   0.419621   0.175492
    23  H    0.002505   0.000088  -0.030055   0.419621   0.519834  -0.049354
    24  N    0.000124   0.004022  -0.043619   0.175492  -0.049354   7.403968
    25  H    0.000062  -0.000156   0.003121  -0.021256   0.000777   0.318211
              25
     1  H    0.000065
     2  C   -0.000234
     3  H   -0.000002
     4  H    0.000603
     5  C   -0.017321
     6  O    0.002357
     7  H    0.000000
     8  H    0.000001
     9  C   -0.000026
    10  C   -0.000051
    11  Cl   0.000001
    12  H    0.000001
    13  C   -0.000017
    14  C    0.001006
    15  H    0.000008
    16  C   -0.000046
    17  C    0.002034
    18  C   -0.000968
    19  H    0.000062
    20  H   -0.000156
    21  H    0.003121
    22  C   -0.021256
    23  H    0.000777
    24  N    0.318211
    25  H    0.326816
 Mulliken charges:
               1
     1  H    0.213920
     2  C   -0.584073
     3  H    0.200892
     4  H    0.172982
     5  C    0.745828
     6  O   -0.605118
     7  H    0.230878
     8  H    0.209635
     9  C   -0.175279
    10  C   -0.226013
    11  Cl  -0.005292
    12  H    0.177260
    13  C   -0.139125
    14  C    0.042082
    15  H    0.187892
    16  C   -0.516064
    17  C   -0.201348
    18  C   -0.032706
    19  H    0.229063
    20  H    0.194616
    21  H    0.226425
    22  C   -0.115383
    23  H    0.186411
    24  N   -0.802498
    25  H    0.385015
 Sum of Mulliken charges =   0.00000
 Mulliken charges with hydrogens summed into heavy atoms:
               1
     2  C    0.003720
     5  C    0.745828
     6  O   -0.605118
     9  C    0.055599
    10  C   -0.016378
    11  Cl  -0.005292
    13  C   -0.139125
    14  C    0.042082
    16  C    0.043703
    17  C    0.027715
    18  C   -0.032706
    22  C    0.297453
    24  N   -0.417483
 DipInt: DoE/N= T F RetVal/Mat= T F Init=T NMatP=  1 IDeriv=0 Min/MaxMlt=  0  4
 Entering OneElI...
 OneElI was handed  2147353573 working-precision words.
 Multipole integrals L=0 to 4 MinM= 0 MaxM= 0.
 Requested accuracy = 0.1000D-12
 ShPair: Thresh= 1.00D-13 NBox=     0 BxSize= 0.00D+00 RnKept= 1.71D+01
         NSMCal=                 3003 NSMKep=                2623
 PrsmSu:  NPrtUS=   1 ThrOK=F IAlg=1 NPAlg=1 LenDen=           0.
 Prism:   IPart=     0 DynPar=F LinDyn=F Incr=          26.
 PRISM was handed  2147117953 working-precision words and  2623 shell-pairs
 IPart=  0 NShTot=        2623 NBatch=          52 AvBLen=        50.4
 PrSmSu:  NxtVal=             27.
 Electronic moments (au):
       -104.00000000          0.18693225          0.21712561          1.08972835
      -2857.06258537       -686.38514051       -222.29123730          5.32551504
         -7.41728483          0.01040349       1822.15316317      -1238.48997881
        -55.01231557       -689.30939472       3578.17505040       -919.10574485
        727.64581431        106.70195032       -185.01700875       -450.81955306
    -141852.64217272     -12173.64923532      -1692.59888826       1280.00289071
       3432.30371622       1319.22886086       -137.49133232        789.73874803
        250.10945557     -14549.73742046      -7854.24370075      -1197.62036084
       2095.09679552        230.49153878      -1227.60413365
 Electronic spatial extent (au):  <R**2>=           3765.7390
 DipInt: DoE/N= F T RetVal/Mat= T F Init=T NMatP=  1 IDeriv=0 Min/MaxMlt=  0  4
 Nuclear    moments (au):
        104.00000000          0.00000000          0.00000000          0.00000000
       2782.55122120        628.60890538        158.67453365          0.00000000
          0.00015579         -0.00000444      -1783.15867089       1237.25295130
         55.35735531        679.12624694      -3570.39936691        996.05817201
       -730.78563137       -112.99666577        188.71379673        467.12989079
     131315.65306664       9840.94762509        912.03530202      -1102.82309868
      -3883.86621399      -1290.96353775        173.37450979       -791.98860353
       -263.14484613      12585.62811671       5980.53518649        662.12494488
      -2116.94373718       -208.63729947       1217.27351449
 Total      moments (au):
          0.00000000          0.18693225          0.21712561          1.08972835
        -74.51136416        -57.77623513        -63.61670365          5.32551504
         -7.41712904          0.01039905         38.99449227         -1.23702751
          0.34503975        -10.18314778          7.77568349         76.95242716
         -3.13981706         -6.29471545          3.69678798         16.31033773
     -10536.98910608      -2332.70161023       -780.56358624        177.17979203
       -451.56249777         28.26532311         35.88317747         -2.24985550
        -13.03539056      -1964.10930374      -1873.70851426       -535.49541596
        -21.84694166         21.85423931        -10.33061916
 Traceless Quadrup. (au):
         -9.20992985          7.52519919          1.68473067          5.32551504
         -7.41712904          0.01039905
 Charge=              0.0000 electrons
 Dipole moment (field-independent basis, Debye):
    X=              0.4751    Y=              0.5519    Z=              2.7698  Tot=              2.8639
 Quadrupole moment (field-independent basis, Debye-Ang):
   XX=           -100.2203   YY=            -77.7110   ZZ=            -85.5666
   XY=              7.1630   XZ=             -9.9763   YZ=              0.0140
 Traceless Quadrupole moment (field-independent basis, Debye-Ang):
   XX=            -12.3877   YY=             10.1217   ZZ=              2.2660
   XY=              7.1630   XZ=             -9.9763   YZ=              0.0140
 Octapole moment (field-independent basis, Debye-Ang**2):
  XXX=             27.7548  YYY=             -0.8805  ZZZ=              0.2456  XYY=             -7.2480
  XXY=              5.5344  XXZ=             54.7718  XZZ=             -2.2348  YZZ=             -4.4803
  YYZ=              2.6312  XYZ=             11.6091
 Hexadecapole moment (field-independent basis, Debye-Ang**3):
 XXXX=          -3968.7351 YYYY=           -878.6072 ZZZZ=           -293.9977 XXXY=             66.7344
 XXXZ=           -170.0801 YYYX=             10.6461 YYYZ=             13.5153 ZZZX=             -0.8474
 ZZZY=             -4.9098 XXYY=           -739.7777 XXZZ=           -705.7284 YYZZ=           -201.6932
 XXYZ=             -8.2286 YYXZ=              8.2314 ZZXY=             -3.8910
 N-N= 8.399065022051D+02 E-N=-3.976349705674D+03  KE= 9.736929854429D+02
 Entering OneElI...
 OneElI was handed  2147377701 working-precision words.
 Calculate electrostatic properties
    NBasis =   223  MinDer = 0  MaxDer = 0
    NGrid  =    25  NMatD  =   1
 Requested accuracy = 0.1000D-12
 PrtBox:  NBox=     1 Levels=  1 BoxLen=   32.45 SMaxX=       16.88
          Shift=            9.681895            4.008783            2.943188
 Box      1 Number                   0 centers from      1 to     77:
 ShPair: Thresh= 1.00D-13 NBox=     1 BxSize= 3.24D+01 RnKept= 1.71D+01
         NSMCal=                 3003 NSMKep=                2394
 PrsmSu:  NPrtUS=   4 ThrOK=T IAlg=1 NPAlg=1 LenDen=           0.
 Prism:   IPart=     0 DynPar=F LinDyn=F Incr=         149.
 PRISM was handed   536732948 working-precision words and  2394 shell-pairs
 PRISM was handed   536732948 working-precision words and  2394 shell-pairs
 PRISM was handed   536732948 working-precision words and  2394 shell-pairs
 PRISM was handed   536732948 working-precision words and  2394 shell-pairs
 IPart=  2 NShTot=       14700 NBatch=         588 AvBLen=        25.0
 IPart=  0 NShTot=       15475 NBatch=         619 AvBLen=        25.0
 IPart=  3 NShTot=       14575 NBatch=         583 AvBLen=        25.0
 IPart=  1 NShTot=       15100 NBatch=         604 AvBLen=        25.0
 PrSmSu:  NxtVal=            597.
 --------------------------------------------------------
       Center         ----      EFG at Nuclei      ----
                      3XX-RR        3YY-RR        3ZZ-RR
 --------------------------------------------------------
     1   Atom       -0.216753      0.059169      0.157584
     2   Atom        0.019374      0.020623     -0.039997
     3   Atom        0.147090     -0.298855      0.151765
     4   Atom        0.038756      0.148887     -0.187643
     5   Atom        0.167081     -0.458787      0.291706
     6   Atom        1.100055     -0.742748     -0.357307
     7   Atom       -0.234834      0.112062      0.122771
     8   Atom        0.141080     -0.270847      0.129767
     9   Atom        0.141512      0.116523     -0.258035
    10   Atom        0.157787      0.099233     -0.257020
    11   Atom       -1.257743     -0.498393      1.756136
    12   Atom        0.108490     -0.202205      0.093715
    13   Atom       -0.035073      0.065306     -0.030233
    14   Atom        0.144227      0.131575     -0.275803
    15   Atom        0.115485      0.140006     -0.255491
    16   Atom       -0.000646     -0.029241      0.029887
    17   Atom        0.131006      0.113732     -0.244738
    18   Atom        0.100707      0.152612     -0.253319
    19   Atom        0.142444     -0.270336      0.127892
    20   Atom       -0.140651      0.108060      0.032590
    21   Atom        0.066143     -0.059117     -0.007026
    22   Atom       -0.045522      0.147950     -0.102429
    23   Atom        0.140998     -0.158388      0.017390
    24   Atom       -0.480858      0.821480     -0.340623
    25   Atom        0.074625      0.162923     -0.237549
 --------------------------------------------------------
                        XY            XZ            YZ
 --------------------------------------------------------
     1   Atom        0.195721      0.009471     -0.000329
     2   Atom       -0.023177      0.034939      0.005494
     3   Atom       -0.074551      0.000543     -0.030731
     4   Atom       -0.045694     -0.193471     -0.073131
     5   Atom        0.019527      0.004042     -0.273584
     6   Atom        0.339197     -0.986665     -0.156771
     7   Atom       -0.126212     -0.145921     -0.052070
     8   Atom       -0.065412     -0.027919     -0.142710
     9   Atom       -0.059267      0.106715      0.106168
    10   Atom       -0.038123      0.118259      0.108496
    11   Atom        2.693486     -0.041994      0.090229
    12   Atom       -0.121339     -0.058903     -0.161596
    13   Atom        0.305377      0.104238      0.127151
    14   Atom       -0.003051      0.133099      0.133770
    15   Atom        0.029169     -0.133852      0.072376
    16   Atom        0.059177     -0.001714     -0.005020
    17   Atom       -0.060727      0.099153      0.106895
    18   Atom       -0.049586      0.077909      0.113857
    19   Atom       -0.058278     -0.026013     -0.145560
    20   Atom       -0.113587      0.197037      0.077780
    21   Atom        0.138501     -0.113510      0.189189
    22   Atom       -0.107018      0.183183      0.027349
    23   Atom        0.045036      0.037060     -0.208043
    24   Atom        0.029153      0.044158      0.493018
    25   Atom        0.098842     -0.206006      0.225594
 --------------------------------------------------------


 ---------------------------------------------------------------------------------
              Nuclear Quadrupole Coupling Constant in Principal Axis System
 ---------------------------------------------------------------------------------

       Atom             a.u.   MegaHertz   Gauss  10(-4) cm-1        Axes

              Baa    -3.5997   -69.060   -24.642   -23.036  0.7547 -0.6559  0.0170
    11 Cl(35) Bbb     1.7413    33.407    11.921    11.144 -0.2570 -0.2717  0.9275
              Bcc     1.8584    35.653    12.722    11.892  0.6037  0.7043  0.3735
 
              Baa    -0.5389     2.588     0.924     0.863 -0.4832 -0.2891  0.8264
    24 N(14)  Bbb    -0.4647     2.232     0.796     0.745  0.8750 -0.1904  0.4450
              Bcc     1.0037    -4.820    -1.720    -1.608  0.0287  0.9382  0.3450
 

 ---------------------------------------------------------------------------------

 No NMR shielding tensors so no spin-rotation constants.
 Leave Link  601 at Wed Nov 29 20:37:03 2017, MaxMem=  2147483648 cpu:         0.4
 FitSet:  NAtFit=    25 NAtPot=    25 NAtFrz=     0 MDM=    29 TotChg=   0.00000
 Merz-Kollman atomic radii used.
 Atom Element Radius
    1     1    1.20
    2     6    1.50
    3     1    1.20
    4     1    1.20
    5     6    1.50
    6     8    1.40
    7     1    1.20
    8     1    1.20
    9     6    1.50
   10     6    1.50
   11    17    1.70
   12     1    1.20
   13     6    1.50
   14     6    1.50
   15     1    1.20
   16     6    1.50
   17     6    1.50
   18     6    1.50
   19     1    1.20
   20     1    1.20
   21     1    1.20
   22     6    1.50
   23     1    1.20
   24     7    1.50
   25     1    1.20
 Generate VDW surfaces: Layer= 4 Dens= 6 Start= 1.400 Inc= 0.200

 **********************************************************************

            Electrostatic Properties Using The SCF Density

 **********************************************************************

       Atomic Center    1 is at  -5.123438 -0.554383  1.287260
       Atomic Center    2 is at  -4.164312 -1.052505  1.276091
       Atomic Center    3 is at  -4.339667 -2.121357  1.203197
       Atomic Center    4 is at  -3.638397 -0.852912  2.202539
       Atomic Center    5 is at  -3.393487 -0.598624  0.054410
       Atomic Center    6 is at  -3.944122 -0.296688 -0.968557
       Atomic Center    7 is at   3.664611  1.314945  0.801902
       Atomic Center    8 is at   1.798304  2.903723  0.745564
       Atomic Center    9 is at   2.698259  1.001894  0.454699
       Atomic Center   10 is at   1.635288  1.891876  0.419681
       Atomic Center   11 is at   3.810268 -1.436636  0.060823
       Atomic Center   12 is at  -0.421599  3.473063  0.359253
       Atomic Center   13 is at   2.493622 -0.292432  0.031936
       Atomic Center   14 is at   0.376712  1.515833 -0.024883
       Atomic Center   15 is at  -1.077525  2.714934 -1.076074
       Atomic Center   16 is at  -0.745969  2.528120 -0.059155
       Atomic Center   17 is at   1.249152 -0.697054 -0.418738
       Atomic Center   18 is at   0.187067  0.193506 -0.449087
       Atomic Center   19 is at   1.111933 -1.709758 -0.750459
       Atomic Center   20 is at  -1.607162  2.188167  0.503825
       Atomic Center   21 is at  -1.649740  0.426211 -1.557468
       Atomic Center   22 is at  -1.161874 -0.301739 -0.928014
       Atomic Center   23 is at  -1.028861 -1.197208 -1.526666
       Atomic Center   24 is at  -2.045297 -0.568042  0.194271
       Atomic Center   25 is at  -1.639714 -0.946063  1.020056
      ESP Fit Center   26 is at  -5.340846 -0.177821  2.910015
      ESP Fit Center   27 is at  -5.558254 -0.554383  2.910015
      ESP Fit Center   28 is at  -5.123438  0.285617  2.742183
      ESP Fit Center   29 is at  -5.543438  0.173079  2.742183
      ESP Fit Center   30 is at  -5.850899 -0.134383  2.742183
      ESP Fit Center   31 is at  -5.963438 -0.554383  2.742183
      ESP Fit Center   32 is at  -5.850899 -0.974383  2.742183
      ESP Fit Center   33 is at  -5.013829  0.628489  2.475199
      ESP Fit Center   34 is at  -5.448533  0.588208  2.475199
      ESP Fit Center   35 is at  -5.839331  0.393613  2.475199
      ESP Fit Center   36 is at  -6.133444  0.070987  2.475199
      ESP Fit Center   37 is at  -6.291150 -0.336100  2.475199
      ESP Fit Center   38 is at  -6.291150 -0.772666  2.475199
      ESP Fit Center   39 is at  -6.133444 -1.179752  2.475199
      ESP Fit Center   40 is at  -5.839331 -1.502379  2.475199
      ESP Fit Center   41 is at  -5.014711  0.896472  2.127260
      ESP Fit Center   42 is at  -5.447189  0.864062  2.127260
      ESP Fit Center   43 is at  -5.850899  0.705617  2.127260
      ESP Fit Center   44 is at  -6.189972  0.435216  2.127260
      ESP Fit Center   45 is at  -6.434278  0.076885  2.127260
      ESP Fit Center   46 is at  -6.562110 -0.337538  2.127260
      ESP Fit Center   47 is at  -6.562110 -0.771228  2.127260
      ESP Fit Center   48 is at  -6.434278 -1.185650  2.127260
      ESP Fit Center   49 is at  -6.189972 -1.543982  2.127260
      ESP Fit Center   50 is at  -4.703438  1.013079  1.722076
      ESP Fit Center   51 is at  -5.123438  1.068373  1.722076
      ESP Fit Center   52 is at  -5.543438  1.013079  1.722076
      ESP Fit Center   53 is at  -5.934816  0.850965  1.722076
      ESP Fit Center   54 is at  -6.270899  0.593079  1.722076
      ESP Fit Center   55 is at  -6.528785  0.256995  1.722076
      ESP Fit Center   56 is at  -6.690899 -0.134383  1.722076
      ESP Fit Center   57 is at  -6.746193 -0.554383  1.722076
      ESP Fit Center   58 is at  -6.690899 -0.974383  1.722076
      ESP Fit Center   59 is at  -6.528785 -1.365760  1.722076
      ESP Fit Center   60 is at  -6.270899 -1.701844  1.722076
      ESP Fit Center   61 is at  -4.604289  1.043392  1.287260
      ESP Fit Center   62 is at  -5.017950  1.122302  1.287260
      ESP Fit Center   63 is at  -5.438239  1.095860  1.287260
      ESP Fit Center   64 is at  -5.838747  0.965727  1.287260
      ESP Fit Center   65 is at  -6.194310  0.740079  1.287260
      ESP Fit Center   66 is at  -6.482587  0.433096  1.287260
      ESP Fit Center   67 is at  -6.685462  0.064066  1.287260
      ESP Fit Center   68 is at  -6.790191 -0.343823  1.287260
      ESP Fit Center   69 is at  -6.790191 -0.764943  1.287260
      ESP Fit Center   70 is at  -6.685462 -1.172832  1.287260
      ESP Fit Center   71 is at  -6.482587 -1.541862  1.287260
      ESP Fit Center   72 is at  -6.194310 -1.848845  1.287260
      ESP Fit Center   73 is at  -4.703438  1.013079  0.852444
      ESP Fit Center   74 is at  -5.123438  1.068373  0.852444
      ESP Fit Center   75 is at  -5.543438  1.013079  0.852444
      ESP Fit Center   76 is at  -5.934816  0.850965  0.852444
      ESP Fit Center   77 is at  -6.270899  0.593079  0.852444
      ESP Fit Center   78 is at  -6.528785  0.256995  0.852444
      ESP Fit Center   79 is at  -6.690899 -0.134383  0.852444
      ESP Fit Center   80 is at  -6.746193 -0.554383  0.852444
      ESP Fit Center   81 is at  -6.690899 -0.974383  0.852444
      ESP Fit Center   82 is at  -6.528785 -1.365760  0.852444
      ESP Fit Center   83 is at  -6.270899 -1.701844  0.852444
      ESP Fit Center   84 is at  -5.014711  0.896472  0.447260
      ESP Fit Center   85 is at  -5.447189  0.864062  0.447260
      ESP Fit Center   86 is at  -5.850899  0.705617  0.447260
      ESP Fit Center   87 is at  -6.189972  0.435216  0.447260
      ESP Fit Center   88 is at  -6.434278  0.076885  0.447260
      ESP Fit Center   89 is at  -6.562110 -0.337538  0.447260
      ESP Fit Center   90 is at  -6.562110 -0.771228  0.447260
      ESP Fit Center   91 is at  -6.434278 -1.185650  0.447260
      ESP Fit Center   92 is at  -6.189972 -1.543982  0.447260
      ESP Fit Center   93 is at  -5.448533  0.588208  0.099321
      ESP Fit Center   94 is at  -5.839331  0.393613  0.099321
      ESP Fit Center   95 is at  -6.133444  0.070987  0.099321
      ESP Fit Center   96 is at  -6.291150 -0.336100  0.099321
      ESP Fit Center   97 is at  -6.291150 -0.772666  0.099321
      ESP Fit Center   98 is at  -6.133444 -1.179752  0.099321
      ESP Fit Center   99 is at  -5.850899 -0.134383 -0.167663
      ESP Fit Center  100 is at  -5.963438 -0.554383 -0.167663
      ESP Fit Center  101 is at  -5.850899 -0.974383 -0.167663
      ESP Fit Center  102 is at  -4.967947 -1.052505  3.216238
      ESP Fit Center  103 is at  -4.860280 -1.454322  3.216238
      ESP Fit Center  104 is at  -5.156258 -0.438318  3.022177
      ESP Fit Center  105 is at  -5.311144 -0.838125  3.022177
      ESP Fit Center  106 is at  -5.311144 -1.266885  3.022177
      ESP Fit Center  107 is at  -5.156258 -1.666692  3.022177
      ESP Fit Center  108 is at  -4.867404 -1.983550  3.022177
      ESP Fit Center  109 is at  -4.483594 -2.174664  3.022177
      ESP Fit Center  110 is at  -4.781172  0.298230  2.761015
      ESP Fit Center  111 is at  -5.589086 -1.470856  2.761015
      ESP Fit Center  112 is at  -5.413510 -1.855315  2.761015
      ESP Fit Center  113 is at  -5.136731 -2.174736  2.761015
      ESP Fit Center  114 is at  -4.374779  0.680850  2.442788
      ESP Fit Center  115 is at  -5.710395 -1.863952  2.442788
      ESP Fit Center  116 is at  -5.471276 -2.210374  2.442788
      ESP Fit Center  117 is at  -3.172422 -2.489506  2.442788
      ESP Fit Center  118 is at  -4.059275  0.884797  2.079726
      ESP Fit Center  119 is at  -4.478193  0.862084  2.079726
      ESP Fit Center  120 is at  -5.826741 -2.052755  2.079726
      ESP Fit Center  121 is at  -2.908287 -2.531211  2.079726
      ESP Fit Center  122 is at  -2.619774 -2.226632  2.079726
      ESP Fit Center  123 is at  -3.074832  0.695405  1.685781
      ESP Fit Center  124 is at  -3.448985  0.878935  1.685781
      ESP Fit Center  125 is at  -3.852424  0.983393  1.685781
      ESP Fit Center  126 is at  -4.268632  1.004501  1.685781
      ESP Fit Center  127 is at  -5.965159 -2.052057  1.685781
      ESP Fit Center  128 is at  -2.745282 -2.545324  1.685781
      ESP Fit Center  129 is at  -4.164312  1.047495  1.276091
      ESP Fit Center  130 is at  -2.679388 -2.537429  1.276091
      ESP Fit Center  131 is at  -2.745282 -2.545324  0.866401
      ESP Fit Center  132 is at  -5.710395 -1.863952  0.109394
      ESP Fit Center  133 is at  -5.589086 -1.470856 -0.208833
      ESP Fit Center  134 is at  -5.413510 -1.855315 -0.208833
      ESP Fit Center  135 is at  -4.557075 -2.497919  2.825952
      ESP Fit Center  136 is at  -4.122259 -2.497919  2.825952
      ESP Fit Center  137 is at  -5.067128 -2.541357  2.658120
      ESP Fit Center  138 is at  -4.759667 -2.848818  2.658120
      ESP Fit Center  139 is at  -4.339667 -2.961357  2.658120
      ESP Fit Center  140 is at  -3.919667 -2.848818  2.658120
      ESP Fit Center  141 is at  -3.612206 -2.541357  2.658120
      ESP Fit Center  142 is at  -5.507380 -2.339640  2.391136
      ESP Fit Center  143 is at  -5.349673 -2.746726  2.391136
      ESP Fit Center  144 is at  -5.055560 -3.069353  2.391136
      ESP Fit Center  145 is at  -4.664762 -3.263947  2.391136
      ESP Fit Center  146 is at  -4.230058 -3.304229  2.391136
      ESP Fit Center  147 is at  -3.810157 -3.184757  2.391136
      ESP Fit Center  148 is at  -3.461769 -2.921666  2.391136
      ESP Fit Center  149 is at  -5.778339 -2.338202  2.043197
      ESP Fit Center  150 is at  -5.650507 -2.752624  2.043197
      ESP Fit Center  151 is at  -5.406201 -3.110956  2.043197
      ESP Fit Center  152 is at  -5.067128 -3.381357  2.043197
      ESP Fit Center  153 is at  -4.663418 -3.539802  2.043197
      ESP Fit Center  154 is at  -4.230941 -3.572211  2.043197
      ESP Fit Center  155 is at  -3.808124 -3.475706  2.043197
      ESP Fit Center  156 is at  -3.432538 -3.258861  2.043197
      ESP Fit Center  157 is at  -3.137554 -2.940944  2.043197
      ESP Fit Center  158 is at  -5.962422 -2.121357  1.638013
      ESP Fit Center  159 is at  -5.907128 -2.541357  1.638013
      ESP Fit Center  160 is at  -5.745014 -2.932735  1.638013
      ESP Fit Center  161 is at  -5.487128 -3.268818  1.638013
      ESP Fit Center  162 is at  -5.151045 -3.526704  1.638013
      ESP Fit Center  163 is at  -4.759667 -3.688818  1.638013
      ESP Fit Center  164 is at  -4.339667 -3.744112  1.638013
      ESP Fit Center  165 is at  -3.919667 -3.688818  1.638013
      ESP Fit Center  166 is at  -3.528289 -3.526704  1.638013
      ESP Fit Center  167 is at  -3.192206 -3.268818  1.638013
      ESP Fit Center  168 is at  -2.934320 -2.932735  1.638013
      ESP Fit Center  169 is at  -6.006420 -2.331917  1.203197
      ESP Fit Center  170 is at  -5.901692 -2.739806  1.203197
      ESP Fit Center  171 is at  -5.698816 -3.108836  1.203197
      ESP Fit Center  172 is at  -5.410539 -3.415819  1.203197
      ESP Fit Center  173 is at  -5.054976 -3.641466  1.203197
      ESP Fit Center  174 is at  -4.654468 -3.771599  1.203197
      ESP Fit Center  175 is at  -4.234179 -3.798042  1.203197
      ESP Fit Center  176 is at  -3.820518 -3.719132  1.203197
      ESP Fit Center  177 is at  -3.439478 -3.539828  1.203197
      ESP Fit Center  178 is at  -3.115000 -3.271396  1.203197
      ESP Fit Center  179 is at  -2.867472 -2.930703  1.203197
      ESP Fit Center  180 is at  -5.962422 -2.121357  0.768381
      ESP Fit Center  181 is at  -5.907128 -2.541357  0.768381
      ESP Fit Center  182 is at  -5.745014 -2.932735  0.768381
      ESP Fit Center  183 is at  -5.487128 -3.268818  0.768381
      ESP Fit Center  184 is at  -5.151045 -3.526704  0.768381
      ESP Fit Center  185 is at  -4.759667 -3.688818  0.768381
      ESP Fit Center  186 is at  -4.339667 -3.744112  0.768381
      ESP Fit Center  187 is at  -3.919667 -3.688818  0.768381
      ESP Fit Center  188 is at  -3.528289 -3.526704  0.768381
      ESP Fit Center  189 is at  -3.192206 -3.268818  0.768381
      ESP Fit Center  190 is at  -2.934320 -2.932735  0.768381
      ESP Fit Center  191 is at  -2.772206 -2.541357  0.768381
      ESP Fit Center  192 is at  -5.778339 -2.338202  0.363197
      ESP Fit Center  193 is at  -5.650507 -2.752624  0.363197
      ESP Fit Center  194 is at  -5.406201 -3.110956  0.363197
      ESP Fit Center  195 is at  -5.067128 -3.381357  0.363197
      ESP Fit Center  196 is at  -4.663418 -3.539802  0.363197
      ESP Fit Center  197 is at  -4.230941 -3.572211  0.363197
      ESP Fit Center  198 is at  -3.808124 -3.475706  0.363197
      ESP Fit Center  199 is at  -3.432538 -3.258861  0.363197
      ESP Fit Center  200 is at  -3.137554 -2.940944  0.363197
      ESP Fit Center  201 is at  -5.507380 -2.339640  0.015258
      ESP Fit Center  202 is at  -5.349673 -2.746726  0.015258
      ESP Fit Center  203 is at  -5.055560 -3.069353  0.015258
      ESP Fit Center  204 is at  -4.664762 -3.263947  0.015258
      ESP Fit Center  205 is at  -4.230058 -3.304229  0.015258
      ESP Fit Center  206 is at  -3.810157 -3.184757  0.015258
      ESP Fit Center  207 is at  -3.461769 -2.921666  0.015258
      ESP Fit Center  208 is at  -5.179667 -2.121357 -0.251726
      ESP Fit Center  209 is at  -5.067128 -2.541357 -0.251726
      ESP Fit Center  210 is at  -4.759667 -2.848818 -0.251726
      ESP Fit Center  211 is at  -4.339667 -2.961357 -0.251726
      ESP Fit Center  212 is at  -3.919667 -2.848818 -0.251726
      ESP Fit Center  213 is at  -4.557075 -2.497919 -0.419558
      ESP Fit Center  214 is at  -3.638397 -0.852912  3.882539
      ESP Fit Center  215 is at  -3.203581 -0.852912  3.825294
      ESP Fit Center  216 is at  -3.420989 -0.476350  3.825294
      ESP Fit Center  217 is at  -3.855805 -0.476350  3.825294
      ESP Fit Center  218 is at  -4.073213 -0.852912  3.825294
      ESP Fit Center  219 is at  -3.855805 -1.229474  3.825294
      ESP Fit Center  220 is at  -3.420989 -1.229474  3.825294
      ESP Fit Center  221 is at  -2.798397 -0.852912  3.657462
      ESP Fit Center  222 is at  -2.910936 -0.432912  3.657462
      ESP Fit Center  223 is at  -3.218397 -0.125451  3.657462
      ESP Fit Center  224 is at  -3.638397 -0.012912  3.657462
      ESP Fit Center  225 is at  -4.058397 -0.125451  3.657462
      ESP Fit Center  226 is at  -4.365858 -0.432912  3.657462
      ESP Fit Center  227 is at  -4.478397 -0.852912  3.657462
      ESP Fit Center  228 is at  -4.365858 -1.272912  3.657462
      ESP Fit Center  229 is at  -4.058397 -1.580373  3.657462
      ESP Fit Center  230 is at  -3.638397 -1.692912  3.657462
      ESP Fit Center  231 is at  -3.218397 -1.580373  3.657462
      ESP Fit Center  232 is at  -2.910936 -1.272912  3.657462
      ESP Fit Center  233 is at  -2.450458 -0.852912  3.390478
      ESP Fit Center  234 is at  -2.530676 -0.423779  3.390478
      ESP Fit Center  235 is at  -2.760499 -0.052602  3.390478
      ESP Fit Center  236 is at  -3.108887  0.210488  3.390478
      ESP Fit Center  237 is at  -3.528788  0.329960  3.390478
      ESP Fit Center  238 is at  -3.963492  0.289679  3.390478
      ESP Fit Center  239 is at  -4.354290  0.095084  3.390478
      ESP Fit Center  240 is at  -4.648403 -0.227542  3.390478
      ESP Fit Center  241 is at  -4.806109 -0.634629  3.390478
      ESP Fit Center  242 is at  -4.806109 -1.071195  3.390478
      ESP Fit Center  243 is at  -4.648403 -1.478281  3.390478
      ESP Fit Center  244 is at  -4.354290 -1.800908  3.390478
      ESP Fit Center  245 is at  -3.963492 -1.995502  3.390478
      ESP Fit Center  246 is at  -3.528788 -2.035784  3.390478
      ESP Fit Center  247 is at  -3.108887 -1.916312  3.390478
      ESP Fit Center  248 is at  -2.760499 -1.653221  3.390478
      ESP Fit Center  249 is at  -2.530676 -1.282045  3.390478
      ESP Fit Center  250 is at  -2.183474 -0.852912  3.042539
      ESP Fit Center  251 is at  -2.248112 -0.424066  3.042539
      ESP Fit Center  252 is at  -2.436283 -0.033325  3.042539
      ESP Fit Center  253 is at  -2.731268  0.284592  3.042539
      ESP Fit Center  254 is at  -3.106854  0.501437  3.042539
      ESP Fit Center  255 is at  -3.529670  0.597943  3.042539
      ESP Fit Center  256 is at  -3.962148  0.565533  3.042539
      ESP Fit Center  257 is at  -4.365858  0.407088  3.042539
      ESP Fit Center  258 is at  -4.704931  0.136687  3.042539
      ESP Fit Center  259 is at  -4.949237 -0.221645  3.042539
      ESP Fit Center  260 is at  -3.962148 -2.271357  3.042539
      ESP Fit Center  261 is at  -3.529670 -2.303766  3.042539
      ESP Fit Center  262 is at  -3.106854 -2.207261  3.042539
      ESP Fit Center  263 is at  -2.731268 -1.990416  3.042539
      ESP Fit Center  264 is at  -2.436283 -1.672499  3.042539
      ESP Fit Center  265 is at  -2.248112 -1.281758  3.042539
      ESP Fit Center  266 is at  -2.070936 -0.432912  2.637355
      ESP Fit Center  267 is at  -2.233050 -0.041534  2.637355
      ESP Fit Center  268 is at  -2.490936  0.294549  2.637355
      ESP Fit Center  269 is at  -2.827019  0.552436  2.637355
      ESP Fit Center  270 is at  -3.218397  0.714549  2.637355
      ESP Fit Center  271 is at  -3.638397  0.769844  2.637355
      ESP Fit Center  272 is at  -4.058397  0.714549  2.637355
      ESP Fit Center  273 is at  -4.449775  0.552436  2.637355
      ESP Fit Center  274 is at  -3.218397 -2.420373  2.637355
      ESP Fit Center  275 is at  -2.827019 -2.258259  2.637355
      ESP Fit Center  276 is at  -2.490936 -2.000373  2.637355
      ESP Fit Center  277 is at  -2.233050 -1.664290  2.637355
      ESP Fit Center  278 is at  -2.070936 -1.272912  2.637355
      ESP Fit Center  279 is at  -2.413730  0.297127  2.202539
      ESP Fit Center  280 is at  -2.738208  0.565559  2.202539
      ESP Fit Center  281 is at  -3.119248  0.744863  2.202539
      ESP Fit Center  282 is at  -3.532909  0.823773  2.202539
      ESP Fit Center  283 is at  -2.413730 -2.002951  2.202539
      ESP Fit Center  284 is at  -3.182160  0.871186  1.539334
      ESP Fit Center  285 is at  -3.183020  1.134731  1.221107
      ESP Fit Center  286 is at  -3.603954  1.134731  1.221107
      ESP Fit Center  287 is at  -3.288450  1.338678  0.858045
      ESP Fit Center  288 is at  -3.707368  1.315965  0.858045
      ESP Fit Center  289 is at  -4.111609  1.203728  0.858045
      ESP Fit Center  290 is at  -4.482272  1.007214  0.858045
      ESP Fit Center  291 is at  -3.497806  1.458382  0.464100
      ESP Fit Center  292 is at  -3.909743  1.395275  0.464100
      ESP Fit Center  293 is at  -4.300544  1.250538  0.464100
      ESP Fit Center  294 is at  -4.654210  1.030097  0.464100
      ESP Fit Center  295 is at  -3.393487  1.501376  0.054410
      ESP Fit Center  296 is at  -3.803177  1.461025  0.054410
      ESP Fit Center  297 is at  -2.983797 -2.658273  0.054410
      ESP Fit Center  298 is at  -3.081599  1.437274 -0.355280
      ESP Fit Center  299 is at  -3.909743 -2.592523 -0.355280
      ESP Fit Center  300 is at  -3.497806 -2.655629 -0.355280
      ESP Fit Center  301 is at  -3.081599 -2.634522 -0.355280
      ESP Fit Center  302 is at  -2.678160 -2.530064 -0.355280
      ESP Fit Center  303 is at  -4.482272 -2.204462 -0.749225
      ESP Fit Center  304 is at  -4.111609 -2.400975 -0.749225
      ESP Fit Center  305 is at  -3.707368 -2.513212 -0.749225
      ESP Fit Center  306 is at  -3.288450 -2.535925 -0.749225
      ESP Fit Center  307 is at  -2.874443 -2.468053 -0.749225
      ESP Fit Center  308 is at  -3.603954 -2.331979 -1.112287
      ESP Fit Center  309 is at  -3.183020 -2.331979 -1.112287
      ESP Fit Center  310 is at  -2.774316 -2.231243 -1.112287
      ESP Fit Center  311 is at  -3.182160 -2.068434 -1.430514
      ESP Fit Center  312 is at  -2.776627 -1.949358 -1.430514
      ESP Fit Center  313 is at  -4.262185  1.370656  0.011443
      ESP Fit Center  314 is at  -4.666844  1.239174  0.011443
      ESP Fit Center  315 is at  -5.026092  1.011189  0.011443
      ESP Fit Center  316 is at  -5.317355  0.701025  0.011443
      ESP Fit Center  317 is at  -3.529327  1.520647 -0.362884
      ESP Fit Center  318 is at  -3.944122  1.567383 -0.362884
      ESP Fit Center  319 is at  -4.358917  1.520647 -0.362884
      ESP Fit Center  320 is at  -4.752912  1.382782 -0.362884
      ESP Fit Center  321 is at  -5.106351  1.160701 -0.362884
      ESP Fit Center  322 is at  -5.401511  0.865541 -0.362884
      ESP Fit Center  323 is at  -5.623592  0.512102 -0.362884
      ESP Fit Center  324 is at  -5.761457  0.118107 -0.362884
      ESP Fit Center  325 is at  -5.808193 -0.296688 -0.362884
      ESP Fit Center  326 is at  -5.761457 -0.711483 -0.362884
      ESP Fit Center  327 is at  -5.623592 -1.105478 -0.362884
      ESP Fit Center  328 is at  -3.031071  1.425509 -0.763681
      ESP Fit Center  329 is at  -3.422639  1.581524 -0.763681
      ESP Fit Center  330 is at  -3.838591  1.649716 -0.763681
      ESP Fit Center  331 is at  -4.259478  1.626896 -0.763681
      ESP Fit Center  332 is at  -4.665619  1.514132 -0.763681
      ESP Fit Center  333 is at  -5.038023  1.316696 -0.763681
      ESP Fit Center  334 is at  -5.359278  1.043819 -0.763681
      ESP Fit Center  335 is at  -5.614362  0.708262 -0.763681
      ESP Fit Center  336 is at  -5.791347  0.325715 -0.763681
      ESP Fit Center  337 is at  -5.881958 -0.085935 -0.763681
      ESP Fit Center  338 is at  -5.881958 -0.507440 -0.763681
      ESP Fit Center  339 is at  -5.791347 -0.919090 -0.763681
      ESP Fit Center  340 is at  -5.614362 -1.301638 -0.763681
      ESP Fit Center  341 is at  -5.359278 -1.637195 -0.763681
      ESP Fit Center  342 is at  -5.038023 -1.910071 -0.763681
      ESP Fit Center  343 is at  -4.665619 -2.107508 -0.763681
      ESP Fit Center  344 is at  -3.031071  1.425509 -1.173433
      ESP Fit Center  345 is at  -3.422639  1.581524 -1.173433
      ESP Fit Center  346 is at  -3.838591  1.649716 -1.173433
      ESP Fit Center  347 is at  -4.259478  1.626896 -1.173433
      ESP Fit Center  348 is at  -4.665619  1.514132 -1.173433
      ESP Fit Center  349 is at  -5.038023  1.316696 -1.173433
      ESP Fit Center  350 is at  -5.359278  1.043819 -1.173433
      ESP Fit Center  351 is at  -5.614362  0.708262 -1.173433
      ESP Fit Center  352 is at  -5.791347  0.325715 -1.173433
      ESP Fit Center  353 is at  -5.881958 -0.085935 -1.173433
      ESP Fit Center  354 is at  -5.881958 -0.507440 -1.173433
      ESP Fit Center  355 is at  -5.791347 -0.919090 -1.173433
      ESP Fit Center  356 is at  -5.614362 -1.301638 -1.173433
      ESP Fit Center  357 is at  -5.359278 -1.637195 -1.173433
      ESP Fit Center  358 is at  -5.038023 -1.910071 -1.173433
      ESP Fit Center  359 is at  -4.665619 -2.107508 -1.173433
      ESP Fit Center  360 is at  -4.259478 -2.220272 -1.173433
      ESP Fit Center  361 is at  -3.135332  1.382782 -1.574230
      ESP Fit Center  362 is at  -3.529327  1.520647 -1.574230
      ESP Fit Center  363 is at  -3.944122  1.567383 -1.574230
      ESP Fit Center  364 is at  -4.358917  1.520647 -1.574230
      ESP Fit Center  365 is at  -4.752912  1.382782 -1.574230
      ESP Fit Center  366 is at  -5.106351  1.160701 -1.574230
      ESP Fit Center  367 is at  -5.401511  0.865541 -1.574230
      ESP Fit Center  368 is at  -5.623592  0.512102 -1.574230
      ESP Fit Center  369 is at  -5.761457  0.118107 -1.574230
      ESP Fit Center  370 is at  -5.808193 -0.296688 -1.574230
      ESP Fit Center  371 is at  -5.761457 -0.711483 -1.574230
      ESP Fit Center  372 is at  -5.623592 -1.105478 -1.574230
      ESP Fit Center  373 is at  -5.401511 -1.458917 -1.574230
      ESP Fit Center  374 is at  -5.106351 -1.754077 -1.574230
      ESP Fit Center  375 is at  -4.752912 -1.976158 -1.574230
      ESP Fit Center  376 is at  -4.358917 -2.114022 -1.574230
      ESP Fit Center  377 is at  -3.944122 -2.160759 -1.574230
      ESP Fit Center  378 is at  -3.529327 -2.114022 -1.574230
      ESP Fit Center  379 is at  -3.135332 -1.976158 -1.574230
      ESP Fit Center  380 is at  -3.419593  1.317645 -1.948557
      ESP Fit Center  381 is at  -3.837541  1.397372 -1.948557
      ESP Fit Center  382 is at  -4.262185  1.370656 -1.948557
      ESP Fit Center  383 is at  -4.666844  1.239174 -1.948557
      ESP Fit Center  384 is at  -5.026092  1.011189 -1.948557
      ESP Fit Center  385 is at  -5.317355  0.701025 -1.948557
      ESP Fit Center  386 is at  -5.522334  0.328170 -1.948557
      ESP Fit Center  387 is at  -5.628147 -0.083946 -1.948557
      ESP Fit Center  388 is at  -5.628147 -0.509430 -1.948557
      ESP Fit Center  389 is at  -5.522334 -0.921546 -1.948557
      ESP Fit Center  390 is at  -5.317355 -1.294400 -1.948557
      ESP Fit Center  391 is at  -5.026092 -1.604565 -1.948557
      ESP Fit Center  392 is at  -4.666844 -1.832550 -1.948557
      ESP Fit Center  393 is at  -4.262185 -1.964032 -1.948557
      ESP Fit Center  394 is at  -3.837541 -1.990748 -1.948557
      ESP Fit Center  395 is at  -3.419593 -1.911020 -1.948557
      ESP Fit Center  396 is at  -3.034604 -1.729858 -1.948557
      ESP Fit Center  397 is at  -2.706763 -1.458645 -1.948557
      ESP Fit Center  398 is at  -3.339043  1.028249 -2.280053
      ESP Fit Center  399 is at  -3.736831  1.145050 -2.280053
      ESP Fit Center  400 is at  -4.151413  1.145050 -2.280053
      ESP Fit Center  401 is at  -4.549200  1.028249 -2.280053
      ESP Fit Center  402 is at  -4.897968  0.804110 -2.280053
      ESP Fit Center  403 is at  -5.169461  0.490790 -2.280053
      ESP Fit Center  404 is at  -5.341685  0.113674 -2.280053
      ESP Fit Center  405 is at  -5.400686 -0.296688 -2.280053
      ESP Fit Center  406 is at  -5.341685 -0.707049 -2.280053
      ESP Fit Center  407 is at  -5.169461 -1.084166 -2.280053
      ESP Fit Center  408 is at  -4.897968 -1.397485 -2.280053
      ESP Fit Center  409 is at  -4.549200 -1.621625 -2.280053
      ESP Fit Center  410 is at  -4.151413 -1.738426 -2.280053
      ESP Fit Center  411 is at  -3.736831 -1.738426 -2.280053
      ESP Fit Center  412 is at  -3.339043 -1.621625 -2.280053
      ESP Fit Center  413 is at  -2.990275 -1.397485 -2.280053
      ESP Fit Center  414 is at  -2.718782 -1.084166 -2.280053
      ESP Fit Center  415 is at  -3.092740  0.479449 -2.554230
      ESP Fit Center  416 is at  -3.430605  0.734593 -2.554230
[...]
 ! R13   R(12,16)                1.0831         -DE/DX =    0.0                 !
 ! R14   R(13,17)                1.384          -DE/DX =    0.0                 !
 ! R15   R(14,16)                1.5121         -DE/DX =    0.0                 !
 ! R16   R(14,18)                1.4016         -DE/DX =    0.0                 !
 ! R17   R(15,16)                1.0858         -DE/DX =    0.0                 !
 ! R18   R(16,20)                1.0836         -DE/DX =    0.0                 !
 ! R19   R(17,18)                1.3864         -DE/DX =    0.0                 !
 ! R20   R(17,19)                1.0744         -DE/DX =    0.0                 !
 ! R21   R(18,22)                1.5147         -DE/DX =    0.0                 !
 ! R22   R(21,22)                1.079          -DE/DX =    0.0                 !
 ! R23   R(22,23)                1.0853         -DE/DX =    0.0                 !
 ! R24   R(22,24)                1.4529         -DE/DX =    0.0                 !
 ! R25   R(24,25)                0.9946         -DE/DX =    0.0                 !
 ! A1    A(1,2,3)              108.1267         -DE/DX =    0.0                 !
 ! A2    A(1,2,4)              109.6876         -DE/DX =    0.0                 !
 ! A3    A(1,2,5)              108.7806         -DE/DX =    0.0                 !
 ! A4    A(3,2,4)              108.4868         -DE/DX =    0.0                 !
 ! A5    A(3,2,5)              108.8559         -DE/DX =    0.0                 !
 ! A6    A(4,2,5)              112.7956         -DE/DX =    0.0                 !
 ! A7    A(2,5,6)              121.9704         -DE/DX =    0.0                 !
 ! A8    A(2,5,24)             115.4523         -DE/DX =    0.0                 !
 ! A9    A(6,5,24)             122.5753         -DE/DX =    0.0                 !
 ! A10   A(7,9,10)             120.7313         -DE/DX =    0.0                 !
 ! A11   A(7,9,13)             120.4789         -DE/DX =    0.0                 !
 ! A12   A(10,9,13)            118.7895         -DE/DX =    0.0                 !
 ! A13   A(8,10,9)             118.6829         -DE/DX =    0.0                 !
 ! A14   A(8,10,14)            119.3302         -DE/DX =    0.0                 !
 ! A15   A(9,10,14)            121.9867         -DE/DX =    0.0                 !
 ! A16   A(9,13,11)            119.9519         -DE/DX =    0.0                 !
 ! A17   A(9,13,17)            120.5593         -DE/DX =    0.0                 !
 ! A18   A(11,13,17)           119.4888         -DE/DX =    0.0                 !
 ! A19   A(10,14,16)           119.9727         -DE/DX =    0.0                 !
 ! A20   A(10,14,18)           118.4024         -DE/DX =    0.0                 !
 ! A21   A(16,14,18)           121.6206         -DE/DX =    0.0                 !
 ! A22   A(12,16,14)           110.6678         -DE/DX =    0.0                 !
 ! A23   A(12,16,15)           107.6458         -DE/DX =    0.0                 !
 ! A24   A(12,16,20)           108.1201         -DE/DX =    0.0                 !
 ! A25   A(14,16,15)           111.293          -DE/DX =    0.0                 !
 ! A26   A(14,16,20)           111.6101         -DE/DX =    0.0                 !
 ! A27   A(15,16,20)           107.3306         -DE/DX =    0.0                 !
 ! A28   A(13,17,18)           120.5421         -DE/DX =    0.0                 !
 ! A29   A(13,17,19)           119.4009         -DE/DX =    0.0                 !
 ! A30   A(18,17,19)           120.0566         -DE/DX =    0.0                 !
 ! A31   A(14,18,17)           119.7195         -DE/DX =    0.0                 !
 ! A32   A(14,18,22)           121.6459         -DE/DX =    0.0                 !
 ! A33   A(17,18,22)           118.6298         -DE/DX =    0.0                 !
 ! A34   A(18,22,21)           111.5033         -DE/DX =    0.0                 !
 ! A35   A(18,22,23)           109.5741         -DE/DX =    0.0                 !
 ! A36   A(18,22,24)           110.9283         -DE/DX =    0.0                 !
 ! A37   A(21,22,23)           106.8748         -DE/DX =    0.0                 !
 ! A38   A(21,22,24)           107.4197         -DE/DX =    0.0                 !
 ! A39   A(23,22,24)           110.4484         -DE/DX =    0.0                 !
 ! A40   A(5,24,22)            121.9444         -DE/DX =    0.0                 !
 ! A41   A(5,24,25)            118.8528         -DE/DX =    0.0                 !
 ! A42   A(22,24,25)           117.5831         -DE/DX =    0.0                 !
 ! D1    D(1,2,5,6)            -31.5186         -DE/DX =    0.0                 !
 ! D2    D(1,2,5,24)           148.9814         -DE/DX =    0.0                 !
 ! D3    D(3,2,5,6)             86.0871         -DE/DX =    0.0                 !
 ! D4    D(3,2,5,24)           -93.4129         -DE/DX =    0.0                 !
 ! D5    D(4,2,5,6)           -153.4496         -DE/DX =    0.0                 !
 ! D6    D(4,2,5,24)            27.0504         -DE/DX =    0.0                 !
 ! D7    D(2,5,24,22)          172.9104         -DE/DX =    0.0                 !
 ! D8    D(2,5,24,25)            7.774          -DE/DX =    0.0                 !
 ! D9    D(6,5,24,22)           -6.5862         -DE/DX =    0.0                 !
 ! D10   D(6,5,24,25)         -171.7226         -DE/DX =    0.0                 !
 ! D11   D(7,9,10,8)             0.1255         -DE/DX =    0.0                 !
 ! D12   D(7,9,10,14)          179.9424         -DE/DX =    0.0                 !
 ! D13   D(13,9,10,8)         -179.6926         -DE/DX =    0.0                 !
 ! D14   D(13,9,10,14)           0.1243         -DE/DX =    0.0                 !
 ! D15   D(7,9,13,11)            0.0891         -DE/DX =    0.0                 !
 ! D16   D(7,9,13,17)         -179.86           -DE/DX =    0.0                 !
 ! D17   D(10,9,13,11)         179.9077         -DE/DX =    0.0                 !
 ! D18   D(10,9,13,17)          -0.0414         -DE/DX =    0.0                 !
 ! D19   D(8,10,14,16)           0.5361         -DE/DX =    0.0                 !
 ! D20   D(8,10,14,18)         179.7989         -DE/DX =    0.0                 !
 ! D21   D(9,10,14,16)        -179.2796         -DE/DX =    0.0                 !
 ! D22   D(9,10,14,18)          -0.0168         -DE/DX =    0.0                 !
 ! D23   D(9,13,17,18)          -0.1485         -DE/DX =    0.0                 !
 ! D24   D(9,13,17,19)         179.5942         -DE/DX =    0.0                 !
 ! D25   D(11,13,17,18)        179.9022         -DE/DX =    0.0                 !
 ! D26   D(11,13,17,19)         -0.3552         -DE/DX =    0.0                 !
 ! D27   D(10,14,16,12)         -4.0088         -DE/DX =    0.0                 !
 ! D28   D(10,14,16,15)        115.6439         -DE/DX =    0.0                 !
 ! D29   D(10,14,16,20)       -124.4705         -DE/DX =    0.0                 !
 ! D30   D(18,14,16,12)        176.7527         -DE/DX =    0.0                 !
 ! D31   D(18,14,16,15)        -63.5946         -DE/DX =    0.0                 !
 ! D32   D(18,14,16,20)         56.291          -DE/DX =    0.0                 !
 ! D33   D(10,14,18,17)         -0.1728         -DE/DX =    0.0                 !
 ! D34   D(10,14,18,22)        179.0238         -DE/DX =    0.0                 !
 ! D35   D(16,14,18,17)        179.0773         -DE/DX =    0.0                 !
 ! D36   D(16,14,18,22)         -1.7261         -DE/DX =    0.0                 !
 ! D37   D(13,17,18,14)          0.2565         -DE/DX =    0.0                 !
 ! D38   D(13,17,18,22)       -178.9643         -DE/DX =    0.0                 !
 ! D39   D(19,17,18,14)       -179.4845         -DE/DX =    0.0                 !
 ! D40   D(19,17,18,22)          1.2947         -DE/DX =    0.0                 !
 ! D41   D(14,18,22,21)         41.7306         -DE/DX =    0.0                 !
 ! D42   D(14,18,22,23)        159.8442         -DE/DX =    0.0                 !
 ! D43   D(14,18,22,24)        -77.9498         -DE/DX =    0.0                 !
 ! D44   D(17,18,22,21)       -139.0644         -DE/DX =    0.0                 !
 ! D45   D(17,18,22,23)        -20.9507         -DE/DX =    0.0                 !
 ! D46   D(17,18,22,24)        101.2553         -DE/DX =    0.0                 !
 ! D47   D(18,22,24,5)         158.3356         -DE/DX =    0.0                 !
 ! D48   D(18,22,24,25)        -36.3484         -DE/DX =    0.0                 !
 ! D49   D(21,22,24,5)          36.2423         -DE/DX =    0.0                 !
 ! D50   D(21,22,24,25)       -158.4417         -DE/DX =    0.0                 !
 ! D51   D(23,22,24,5)         -79.969          -DE/DX =    0.0                 !
 ! D52   D(23,22,24,25)         85.347          -DE/DX =    0.0                 !
 --------------------------------------------------------------------------------
 GradGradGradGradGradGradGradGradGradGradGradGradGradGradGradGradGradGrad

                          Input orientation:                          
 ---------------------------------------------------------------------
 Center     Atomic      Atomic             Coordinates (Angstroms)
 Number     Number       Type             X           Y           Z
 ---------------------------------------------------------------------
      1          1           0        5.123438   -0.554383   -1.287260
      2          6           0        4.164312   -1.052505   -1.276091
      3          1           0        4.339667   -2.121357   -1.203197
      4          1           0        3.638397   -0.852912   -2.202539
      5          6           0        3.393487   -0.598624   -0.054410
      6          8           0        3.944122   -0.296688    0.968557
      7          1           0       -3.664611    1.314945   -0.801902
      8          1           0       -1.798304    2.903723   -0.745564
      9          6           0       -2.698259    1.001894   -0.454699
     10          6           0       -1.635288    1.891876   -0.419681
     11         17           0       -3.810268   -1.436636   -0.060823
     12          1           0        0.421599    3.473063   -0.359253
     13          6           0       -2.493622   -0.292432   -0.031936
     14          6           0       -0.376712    1.515833    0.024883
     15          1           0        1.077525    2.714934    1.076074
     16          6           0        0.745969    2.528120    0.059155
     17          6           0       -1.249152   -0.697054    0.418738
     18          6           0       -0.187067    0.193506    0.449087
     19          1           0       -1.111933   -1.709758    0.750459
     20          1           0        1.607162    2.188167   -0.503825
     21          1           0        1.649740    0.426211    1.557468
     22          6           0        1.161874   -0.301739    0.928014
     23          1           0        1.028861   -1.197208    1.526666
     24          7           0        2.045297   -0.568042   -0.194271
     25          1           0        1.639714   -0.946063   -1.020056
 ---------------------------------------------------------------------
                    Distance matrix (angstroms):
                    1          2          3          4          5
     1  H    0.000000
     2  C    1.080821   0.000000
     3  H    1.754073   1.085591   0.000000
     4  H    1.769803   1.083850   1.760516   0.000000
     5  C    2.124760   1.514161   2.129245   2.176948   0.000000
     6  O    2.558496   2.378695   2.863981   3.233992   1.200344
     7  H    8.997764   8.192784   8.719958   7.745664   7.351003
     8  H    7.756445   7.175374   7.945788   6.767038   6.300700
     9  C    8.018360   7.210418   7.736107   6.829968   6.311201
    10  C    7.239976   6.560349   7.240167   6.206786   5.623575
    11  Cl   9.060553   8.075788   8.258045   7.772406   7.252337
    12  H    6.260097   5.943842   6.881935   5.697329   5.050117
    13  C    7.724251   6.815696   7.170123   6.528960   5.895109
    14  C    6.021558   5.376783   6.081247   5.166572   4.323380
    15  H    5.713422   5.408746   6.263095   5.480592   4.197778
    16  C    5.520588   5.127263   6.010477   4.991270   4.098631
    17  C    6.598537   5.683695   5.991178   5.548290   4.667725
    18  C    5.636994   4.843891   5.346022   4.770774   3.701533
    19  H    6.660859   5.690136   5.805698   5.658623   4.709697
    20  H    4.527643   4.199686   5.150505   4.032333   3.340529
    21  H    4.595718   4.066784   4.620290   4.441685   2.586328
    22  C    4.545906   3.799521   4.236914   4.029556   2.456297
    23  H    5.009687   4.208021   4.389492   4.564558   2.906813
    24  N    3.266460   2.428016   2.948704   2.579197   1.355770
    25  H    3.515842   2.539779   2.950356   2.324151   2.031971
                    6          7          8          9         10
     6  O    0.000000
     7  H    7.976510   0.000000
     8  H    6.793843   2.451630   0.000000
     9  C    6.916155   1.073493   2.124023   0.000000
    10  C    6.151978   2.144084   1.075457   1.386795   0.000000
    11  Cl   7.905041   2.853351   4.832762   2.708898   3.992281
    12  H    5.327501   4.642254   2.324081   3.981118   2.595108
    13  C    6.515025   2.132539   3.347856   1.376911   2.378715
    14  C    4.779682   3.396205   2.130904   2.425637   1.386744
    15  H    4.159183   5.289104   3.409457   4.419764   3.205318
    16  C    4.362881   4.654721   2.694805   3.802120   2.510871
    17  C    5.237622   3.372320   3.823972   2.397755   2.748564
    18  C    4.192477   3.862112   3.371728   2.788621   2.395112
    19  H    5.254334   4.251449   4.898306   3.364802   3.822943
    20  H    3.715346   5.351912   3.488217   4.466129   3.257046
    21  H    2.476608   5.882075   4.830220   4.825487   4.104717
    22  C    2.782548   5.375987   4.673168   4.302555   3.801624
    23  H    3.101801   5.810492   5.474808   4.759546   4.519778
    24  N    2.243064   6.043005   5.208680   5.003383   4.432687
    25  H    3.112325   5.770235   5.168768   4.788755   4.374927
                   11         12         13         14         15
    11  Cl   0.000000
    12  H    6.488675   0.000000
    13  C    1.744590   4.773322   0.000000
    14  C    4.529208   2.148397   2.784665   0.000000
    15  H    6.512955   1.750760   4.798440   2.158159   0.000000
    16  C    6.040942   1.083143   4.296366   1.512056   1.085796
    17  C    2.708556   4.559227   1.384027   2.411046   4.181767
    18  C    4.005616   3.432110   2.405767   1.401593   2.889620
    19  H    2.830863   5.517682   2.128384   3.386953   4.947489
    20  H    6.533299   1.754257   4.815857   2.160398   1.747593
    21  H    5.991724   3.803348   4.495565   2.764525   2.407784
    22  C    5.194996   4.056377   3.779450   2.546853   3.021482
    23  H    5.098492   5.073154   3.956734   3.404641   3.938306
    24  N    5.921141   4.358227   4.550176   3.202607   3.650793
    25  H    5.555456   4.631322   4.299777   3.349448   4.255904
                   16         17         18         19         20
    16  C    0.000000
    17  C    3.809404   0.000000
    18  C    2.544214   1.386378   0.000000
    19  H    4.678601   1.074447   2.137432   0.000000
    20  H    1.083590   4.163430   2.847099   4.915336   0.000000
    21  H    2.734916   3.310892   2.157897   3.583359   2.712053
    22  C    2.989313   2.495733   1.514688   2.680344   2.906557
    23  H    4.013936   2.582054   2.138631   2.334139   3.989748
    24  N    3.367298   3.353479   2.444855   3.487711   2.807931
    25  H    3.746121   3.236925   2.606555   3.359987   3.176626
                   21         22         23         24         25
    21  H    0.000000
    22  C    1.078952   0.000000
    23  H    1.738370   1.085330   0.000000
    24  N    2.052704   1.452886   2.095380   0.000000
    25  H    2.920080   2.106766   2.630971   0.994645   0.000000
 Stoichiometry    C10H12ClNO
 Framework group  C1[X(C10H12ClNO)]
 Deg. of freedom    69
 Full point group                 C1      NOp   1
 Largest Abelian subgroup         C1      NOp   1
 Largest concise Abelian subgroup C1      NOp   1
                         Standard orientation:                         
 ---------------------------------------------------------------------
 Center     Atomic      Atomic             Coordinates (Angstroms)
 Number     Number       Type             X           Y           Z
 ---------------------------------------------------------------------
      1          1           0       -5.123438   -0.554383    1.287260
      2          6           0       -4.164312   -1.052505    1.276091
      3          1           0       -4.339667   -2.121357    1.203197
      4          1           0       -3.638397   -0.852912    2.202539
      5          6           0       -3.393487   -0.598624    0.054410
      6          8           0       -3.944122   -0.296688   -0.968557
      7          1           0        3.664611    1.314945    0.801902
      8          1           0        1.798304    2.903723    0.745564
      9          6           0        2.698259    1.001894    0.454699
     10          6           0        1.635288    1.891876    0.419681
     11         17           0        3.810268   -1.436636    0.060823
     12          1           0       -0.421599    3.473063    0.359253
     13          6           0        2.493622   -0.292432    0.031936
     14          6           0        0.376712    1.515833   -0.024883
     15          1           0       -1.077525    2.714934   -1.076074
     16          6           0       -0.745969    2.528120   -0.059155
     17          6           0        1.249152   -0.697054   -0.418738
     18          6           0        0.187067    0.193506   -0.449087
     19          1           0        1.111933   -1.709758   -0.750459
     20          1           0       -1.607162    2.188167    0.503825
     21          1           0       -1.649740    0.426211   -1.557468
     22          6           0       -1.161874   -0.301739   -0.928014
     23          1           0       -1.028861   -1.197208   -1.526666
     24          7           0       -2.045297   -0.568042    0.194271
     25          1           0       -1.639714   -0.946063    1.020056
 ---------------------------------------------------------------------
 Rotational constants (GHZ):      1.3293987      0.3245450      0.2817285

 Test job not archived.
 1\1\GINC-LAC-030\FOpt\RHF\6-31G(d)\C10H12Cl1N1O1\SONGLIN3\29-Nov-2017\
 0\\#HF/6-31G* SCF=tight Test Pop=MK iop(6/33=2) iop(6/42=6) opt # iop(
 6/50=1)\\remark line goes here\\0,1\H,5.123438,-0.554383,-1.28726\C,4.
 164312,-1.052505,-1.276091\H,4.339667,-2.121357,-1.203197\H,3.638397,-
 0.852912,-2.202539\C,3.393487,-0.598624,-0.05441\O,3.944122,-0.296688,
 0.968557\H,-3.664611,1.314945,-0.801902\H,-1.798304,2.903723,-0.745564
 \C,-2.698259,1.001894,-0.454699\C,-1.635288,1.891876,-0.419681\Cl,-3.8
 10268,-1.436636,-0.060823\H,0.421599,3.473063,-0.359253\C,-2.493622,-0
 .292432,-0.031936\C,-0.376712,1.515833,0.024883\H,1.077525,2.714934,1.
 076074\C,0.745969,2.52812,0.059155\C,-1.249152,-0.697054,0.418738\C,-0
 .187067,0.193506,0.449087\H,-1.111933,-1.709758,0.750459\H,1.607162,2.
 188167,-0.503825\H,1.64974,0.426211,1.557468\C,1.161874,-0.301739,0.92
 8014\H,1.028861,-1.197208,1.526666\N,2.045297,-0.568042,-0.194271\H,1.
 639714,-0.946063,-1.020056\\Version=ES64L-G09RevD.01\State=1-A\HF=-974
 .4896902\RMSD=3.897e-09\RMSF=5.501e-06\Dipole=-0.1869322,0.2171256,-1.
 0897283\Quadrupole=-9.2099303,7.5251997,1.6847307,-5.3255143,-7.417129
 ,-0.0103987\PG=C01 [X(C10H12Cl1N1O1)]\\@


 A leading authority is anyone who has guessed right more than once.
 -- Frank A. Clark
 Job cpu time:       0 days  0 hours  0 minutes 44.6 seconds.
 File lengths (MBytes):  RWF=    134 Int=      0 D2E=      0 Chk=      5 Scr=      2
 Normal termination of Gaussian 09 at Wed Nov 29 20:37:08 2017.
