 Entering Gaussian System, Link 0=g09
 Initial command:
 /opt/software/Gaussian/g09/l1.exe "/mnt/ls15/scratch/users/songlin3/Gau-30757.inp" -scrdir="/mnt/ls15/scratch/users/songlin3/"
 Entering Link 1 = /opt/software/Gaussian/g09/l1.exe PID=     30758.
  
 Copyright (c) 1988,1990,1992,1993,1995,1998,2003,2009,2013,
            Gaussian, Inc.  All Rights Reserved.
  
 This is part of the Gaussian(R) 09 program.  It is based on
 the Gaussian(R) 03 system (copyright 2003, Gaussian, Inc.),
 the Gaussian(R) 98 system (copyright 1998, Gaussian, Inc.),
 the Gaussian(R) 94 system (copyright 1995, Gaussian, Inc.),
 the Gaussian 92(TM) system (copyright 1992, Gaussian, Inc.),
 the Gaussian 90(TM) system (copyright 1990, Gaussian, Inc.),
 the Gaussian 88(TM) system (copyright 1988, Gaussian, Inc.),
 the Gaussian 86(TM) system (copyright 1986, Carnegie Mellon
 University), and the Gaussian 82(TM) system (copyright 1983,
 Carnegie Mellon University). Gaussian is a federally registered
 trademark of Gaussian, Inc.
  
 This software contains proprietary and confidential information,
 including trade secrets, belonging to Gaussian, Inc.
  
 This software is provided under written license and may be
 used, copied, transmitted, or stored only in accord with that
 written license.
  
 The following legend is applicable only to US Government
 contracts under FAR:
  
                    RESTRICTED RIGHTS LEGEND
  
 Use, reproduction and disclosure by the US Government is
 subject to restrictions as set forth in subparagraphs (a)
 and (c) of the Commercial Computer Software - Restricted
 Rights clause in FAR 52.227-19.
  
 Gaussian, Inc.
 340 Quinnipiac St., Bldg. 40, Wallingford CT 06492
  
  
 ---------------------------------------------------------------
 Warning -- This program may not be used in any manner that
 competes with the business of Gaussian, Inc. or will provide
 assistance to any competitor of Gaussian, Inc.  The licensee
 of this program is prohibited from giving any competitor of
 Gaussian, Inc. access to this program.  By using this program,
 the user acknowledges that Gaussian, Inc. is engaged in the
 business of creating and licensing software in the field of
 computational chemistry and represents and warrants to the
 licensee that it is not a competitor of Gaussian, Inc. and that
 it will not use this program in any manner prohibited above.
 ---------------------------------------------------------------
  

 Cite this work as:
 Gaussian 09, Revision D.01,
 M. J. Frisch, G. W. Trucks, H. B. Schlegel, G. E. Scuseria, 
 M. A. Robb, J. R. Cheeseman, G. Scalmani, V. Barone, B. Mennucci, 
 G. A. Petersson, H. Nakatsuji, M. Caricato, X. Li, H. P. Hratchian, 
 A. F. Izmaylov, J. Bloino, G. Zheng, J. L. Sonnenberg, M. Hada, 
 M. Ehara, K. Toyota, R. Fukuda, J. Hasegawa, M. Ishida, T. Nakajima, 
 Y. Honda, O. Kitao, H. Nakai, T. Vreven, J. A. Montgomery, Jr., 
 J. E. Peralta, F. Ogliaro, M. Bearpark, J. J. Heyd, E. Brothers, 
 K. N. Kudin, V. N. Staroverov, T. Keith, R. Kobayashi, J. Normand, 
 K. Raghavachari, A. Rendell, J. C. Burant, S. S. Iyengar, J. Tomasi, 
 M. Cossi, N. Rega, J. M. Millam, M. Klene, J. E. Knox, J. B. Cross, 
 V. Bakken, C. Adamo, J. Jaramillo, R. Gomperts, R. E. Stratmann, 
 O. Yazyev, A. J. Austin, R. Cammi, C. Pomelli, J. W. Ochterski, 
 R. L. Martin, K. Morokuma, V. G. Zakrzewski, G. A. Voth, 
 P. Salvador, J. J. Dannenberg, S. Dapprich, A. D. Daniels, 
 O. Farkas, J. B. Foresman, J. V. Ortiz, J. Cioslowski, 
 and D. J. Fox, Gaussian, Inc., Wallingford CT, 2013.
 
 ******************************************
 Gaussian 09:  ES64L-G09RevD.01 24-Apr-2013
                29-Nov-2017 
 ******************************************
 %RWF=myrwf
 %NoSave
 %chk=opt.chk
 %NprocShared=4
 Will use up to    4 processors via shared memory.
 %Mem=16GB
 ------------------------------------------------------------
 #HF/6-31G* SCF=tight Test Pop=MK iop(6/33=2) iop(6/42=6) opt
 ------------------------------------------------------------
 1/18=20,19=15,38=1/1,3;
 2/9=110,12=2,17=6,18=5,40=1/2;
 3/5=1,6=6,7=1,11=9,16=1,25=1,30=1,71=1/1,2,3;
 4//1;
 5/5=2,32=2,38=5/2;
 6/7=2,8=2,9=2,10=2,15=8,20=1,28=1,33=2,42=6/1,2;
 7//1,2,3,16;
 1/18=20,19=15/3(2);
 2/9=110/2;
 99//99;
 2/9=110/2;
 3/5=1,6=6,7=1,11=9,16=1,25=1,30=1,71=1/1,2,3;
 4/5=5,16=3,69=1/1;
 5/5=2,32=2,38=5/2;
 7//1,2,3,16;
 1/18=20,19=15/3(-5);
 2/9=110/2;
 6/7=2,8=2,9=2,10=2,15=8,19=2,20=1,28=1,33=2,42=6/1,2;
 99/9=1/99;
 ---------------------
 remark line goes here
 ---------------------
 Symbolic Z-matrix:
 Charge =  0 Multiplicity = 1
 H                     18.482   -12.859    20.713 
 C                     18.03    -11.915    21.017 
 H                     18.663   -11.088    20.696 
 H                     17.927   -11.894    22.102 
 C                     16.627   -11.739    20.383 
 O                     16.174   -12.614    19.644 
 H                     10.815   -10.435    24.17 
 H                     11.176   -12.429    22.762 
 C                     11.57    -10.415    23.397 
 C                     11.779   -11.548    22.59 
 Cl                    12.187   -7.918     24.273 
 H                     12.23    -13.562    21.012 
 C                     12.369   -9.273     23.218 
 C                     12.772   -11.544    21.586 
 H                     12.942   -12.618    19.708 
 C                     12.987   -12.811    20.779 
 C                     13.345   -9.254     22.202 
 C                     13.553   -10.378    21.37 
 H                     13.954   -8.373     22.076 
 H                     13.96    -13.242    21.016 
 H                     14.298   -10.846    19.381 
 C                     14.601   -10.279    20.262 
 H                     14.623   -9.24      19.941 
 N                     15.957   -10.618    20.681 
 H                     16.453   -9.918     21.231 
 

 GradGradGradGradGradGradGradGradGradGradGradGradGradGradGradGradGradGrad
 Berny optimization.
 Initialization pass.
                           ----------------------------
                           !    Initial Parameters    !
                           ! (Angstroms and Degrees)  !
 --------------------------                            --------------------------
 ! Name  Definition              Value          Derivative Info.                !
 --------------------------------------------------------------------------------
 ! R1    R(1,2)                  1.0899         estimate D2E/DX2                !
 ! R2    R(2,3)                  1.0898         estimate D2E/DX2                !
 ! R3    R(2,4)                  1.0901         estimate D2E/DX2                !
 ! R4    R(2,5)                  1.5496         estimate D2E/DX2                !
 ! R5    R(5,6)                  1.2316         estimate D2E/DX2                !
 ! R6    R(5,24)                 1.3395         estimate D2E/DX2                !
 ! R7    R(7,9)                  1.0807         estimate D2E/DX2                !
 ! R8    R(8,10)                 1.0814         estimate D2E/DX2                !
 ! R9    R(9,10)                 1.4066         estimate D2E/DX2                !
 ! R10   R(9,13)                 1.4052         estimate D2E/DX2                !
 ! R11   R(10,14)                1.4121         estimate D2E/DX2                !
 ! R12   R(11,13)                1.7269         estimate D2E/DX2                !
 ! R13   R(12,16)                1.0915         estimate D2E/DX2                !
 ! R14   R(13,17)                1.409          estimate D2E/DX2                !
 ! R15   R(14,16)                1.5175         estimate D2E/DX2                !
 ! R16   R(14,18)                1.4199         estimate D2E/DX2                !
 ! R17   R(15,16)                1.0892         estimate D2E/DX2                !
 ! R18   R(16,20)                1.0903         estimate D2E/DX2                !
 ! R19   R(17,18)                1.4138         estimate D2E/DX2                !
 ! R20   R(17,19)                1.0784         estimate D2E/DX2                !
 ! R21   R(18,22)                1.5283         estimate D2E/DX2                !
 ! R22   R(21,22)                1.0906         estimate D2E/DX2                !
 ! R23   R(22,23)                1.0877         estimate D2E/DX2                !
 ! R24   R(22,24)                1.4592         estimate D2E/DX2                !
 ! R25   R(24,25)                1.0191         estimate D2E/DX2                !
 ! A1    A(1,2,3)              109.5259         estimate D2E/DX2                !
 ! A2    A(1,2,4)              109.4814         estimate D2E/DX2                !
 ! A3    A(1,2,5)              111.0839         estimate D2E/DX2                !
 ! A4    A(3,2,4)              109.4778         estimate D2E/DX2                !
 ! A5    A(3,2,5)              108.6136         estimate D2E/DX2                !
 ! A6    A(4,2,5)              108.632          estimate D2E/DX2                !
 ! A7    A(2,5,6)              119.8541         estimate D2E/DX2                !
 ! A8    A(2,5,24)             117.1858         estimate D2E/DX2                !
 ! A9    A(6,5,24)             122.9596         estimate D2E/DX2                !
 ! A10   A(7,9,10)             119.9503         estimate D2E/DX2                !
 ! A11   A(7,9,13)             120.224          estimate D2E/DX2                !
 ! A12   A(10,9,13)            119.8039         estimate D2E/DX2                !
 ! A13   A(8,10,9)             118.8238         estimate D2E/DX2                !
 ! A14   A(8,10,14)            120.4987         estimate D2E/DX2                !
 ! A15   A(9,10,14)            120.6706         estimate D2E/DX2                !
 ! A16   A(9,13,11)            119.9952         estimate D2E/DX2                !
 ! A17   A(9,13,17)            119.781          estimate D2E/DX2                !
 ! A18   A(11,13,17)           120.1958         estimate D2E/DX2                !
 ! A19   A(10,14,16)           118.3834         estimate D2E/DX2                !
 ! A20   A(10,14,18)           119.8191         estimate D2E/DX2                !
 ! A21   A(16,14,18)           121.7893         estimate D2E/DX2                !
 ! A22   A(12,16,14)           111.2656         estimate D2E/DX2                !
 ! A23   A(12,16,15)           107.6484         estimate D2E/DX2                !
 ! A24   A(12,16,20)           107.4909         estimate D2E/DX2                !
 ! A25   A(14,16,15)           111.6615         estimate D2E/DX2                !
 ! A26   A(14,16,20)           109.9321         estimate D2E/DX2                !
 ! A27   A(15,16,20)           108.7036         estimate D2E/DX2                !
 ! A28   A(13,17,18)           121.0335         estimate D2E/DX2                !
 ! A29   A(13,17,19)           119.1084         estimate D2E/DX2                !
 ! A30   A(18,17,19)           119.8449         estimate D2E/DX2                !
 ! A31   A(14,18,17)           118.8425         estimate D2E/DX2                !
 ! A32   A(14,18,22)           122.7275         estimate D2E/DX2                !
 ! A33   A(17,18,22)           118.4258         estimate D2E/DX2                !
 ! A34   A(18,22,21)           111.1892         estimate D2E/DX2                !
 ! A35   A(18,22,23)           106.8403         estimate D2E/DX2                !
 ! A36   A(18,22,24)           114.4567         estimate D2E/DX2                !
 ! A37   A(21,22,23)           105.298          estimate D2E/DX2                !
 ! A38   A(21,22,24)           111.6757         estimate D2E/DX2                !
 ! A39   A(23,22,24)           106.7306         estimate D2E/DX2                !
 ! A40   A(5,24,22)            126.5373         estimate D2E/DX2                !
 ! A41   A(5,24,25)            116.8373         estimate D2E/DX2                !
 ! A42   A(22,24,25)           116.5957         estimate D2E/DX2                !
 ! D1    D(1,2,5,6)             -0.0226         estimate D2E/DX2                !
 ! D2    D(1,2,5,24)           179.7421         estimate D2E/DX2                !
 ! D3    D(3,2,5,6)            120.4973         estimate D2E/DX2                !
 ! D4    D(3,2,5,24)           -59.7379         estimate D2E/DX2                !
 ! D5    D(4,2,5,6)           -120.4993         estimate D2E/DX2                !
 ! D6    D(4,2,5,24)            59.2654         estimate D2E/DX2                !
 ! D7    D(2,5,24,22)         -176.3044         estimate D2E/DX2                !
 ! D8    D(2,5,24,25)            5.7555         estimate D2E/DX2                !
 ! D9    D(6,5,24,22)            3.4524         estimate D2E/DX2                !
 ! D10   D(6,5,24,25)         -174.4877         estimate D2E/DX2                !
 ! D11   D(7,9,10,8)            -0.2045         estimate D2E/DX2                !
 ! D12   D(7,9,10,14)         -179.2521         estimate D2E/DX2                !
 ! D13   D(13,9,10,8)          178.1009         estimate D2E/DX2                !
 ! D14   D(13,9,10,14)          -0.9467         estimate D2E/DX2                !
 ! D15   D(7,9,13,11)            2.3069         estimate D2E/DX2                !
 ! D16   D(7,9,13,17)         -179.6125         estimate D2E/DX2                !
 ! D17   D(10,9,13,11)        -175.9938         estimate D2E/DX2                !
 ! D18   D(10,9,13,17)           2.0867         estimate D2E/DX2                !
 ! D19   D(8,10,14,16)          -1.1952         estimate D2E/DX2                !
 ! D20   D(8,10,14,18)         179.8258         estimate D2E/DX2                !
 ! D21   D(9,10,14,16)         177.8365         estimate D2E/DX2                !
 ! D22   D(9,10,14,18)          -1.1426         estimate D2E/DX2                !
 ! D23   D(9,13,17,18)          -1.156          estimate D2E/DX2                !
 ! D24   D(9,13,17,19)        -179.8322         estimate D2E/DX2                !
 ! D25   D(11,13,17,18)        176.9207         estimate D2E/DX2                !
 ! D26   D(11,13,17,19)         -1.7556         estimate D2E/DX2                !
 ! D27   D(10,14,16,12)          6.9594         estimate D2E/DX2                !
 ! D28   D(10,14,16,15)        127.2656         estimate D2E/DX2                !
 ! D29   D(10,14,16,20)       -112.0006         estimate D2E/DX2                !
 ! D30   D(18,14,16,12)       -174.0827         estimate D2E/DX2                !
 ! D31   D(18,14,16,15)        -53.7765         estimate D2E/DX2                !
 ! D32   D(18,14,16,20)         66.9574         estimate D2E/DX2                !
 ! D33   D(10,14,18,17)          2.0518         estimate D2E/DX2                !
 ! D34   D(10,14,18,22)       -177.1844         estimate D2E/DX2                !
 ! D35   D(16,14,18,17)       -176.8915         estimate D2E/DX2                !
 ! D36   D(16,14,18,22)          3.8723         estimate D2E/DX2                !
 ! D37   D(13,17,18,14)         -0.9175         estimate D2E/DX2                !
 ! D38   D(13,17,18,22)        178.3518         estimate D2E/DX2                !
 ! D39   D(19,17,18,14)        177.7491         estimate D2E/DX2                !
 ! D40   D(19,17,18,22)         -2.9816         estimate D2E/DX2                !
 ! D41   D(14,18,22,21)         33.7401         estimate D2E/DX2                !
 ! D42   D(14,18,22,23)        148.1327         estimate D2E/DX2                !
 ! D43   D(14,18,22,24)        -93.9574         estimate D2E/DX2                !
 ! D44   D(17,18,22,21)       -145.4991         estimate D2E/DX2                !
 ! D45   D(17,18,22,23)        -31.1065         estimate D2E/DX2                !
 ! D46   D(17,18,22,24)         86.8034         estimate D2E/DX2                !
 ! D47   D(18,22,24,5)         106.1616         estimate D2E/DX2                !
 ! D48   D(18,22,24,25)        -75.8939         estimate D2E/DX2                !
 ! D49   D(21,22,24,5)         -21.2877         estimate D2E/DX2                !
 ! D50   D(21,22,24,25)        156.6568         estimate D2E/DX2                !
 ! D51   D(23,22,24,5)        -135.8661         estimate D2E/DX2                !
 ! D52   D(23,22,24,25)         42.0784         estimate D2E/DX2                !
 --------------------------------------------------------------------------------
 Trust Radius=3.00D-01 FncErr=1.00D-07 GrdErr=1.00D-07
 Number of steps in this run=    129 maximum allowed number of steps=    150.
 GradGradGradGradGradGradGradGradGradGradGradGradGradGradGradGradGradGrad

                          Input orientation:                          
 ---------------------------------------------------------------------
 Center     Atomic      Atomic             Coordinates (Angstroms)
 Number     Number       Type             X           Y           Z
 ---------------------------------------------------------------------
      1          1           0       18.482000  -12.859000   20.713000
      2          6           0       18.030000  -11.915000   21.017000
      3          1           0       18.663000  -11.088000   20.696000
      4          1           0       17.927000  -11.894000   22.102000
      5          6           0       16.627000  -11.739000   20.383000
      6          8           0       16.174000  -12.614000   19.644000
      7          1           0       10.815000  -10.435000   24.170000
      8          1           0       11.176000  -12.429000   22.762000
      9          6           0       11.570000  -10.415000   23.397000
     10          6           0       11.779000  -11.548000   22.590000
     11         17           0       12.187000   -7.918000   24.273000
     12          1           0       12.230000  -13.562000   21.012000
     13          6           0       12.369000   -9.273000   23.218000
     14          6           0       12.772000  -11.544000   21.586000
     15          1           0       12.942000  -12.618000   19.708000
     16          6           0       12.987000  -12.811000   20.779000
     17          6           0       13.345000   -9.254000   22.202000
     18          6           0       13.553000  -10.378000   21.370000
     19          1           0       13.954000   -8.373000   22.076000
     20          1           0       13.960000  -13.242000   21.016000
     21          1           0       14.298000  -10.846000   19.381000
     22          6           0       14.601000  -10.279000   20.262000
     23          1           0       14.623000   -9.240000   19.941000
     24          7           0       15.957000  -10.618000   20.681000
     25          1           0       16.453000   -9.918000   21.231000
 ---------------------------------------------------------------------
                    Distance matrix (angstroms):
                    1          2          3          4          5
     1  H    0.000000
     2  C    1.089888   0.000000
     3  H    1.780306   1.089798   0.000000
     4  H    1.780048   1.090080   1.779935   0.000000
     5  C    2.191877   1.549626   2.160339   2.160784   0.000000
     6  O    2.555318   2.412150   3.103305   3.103735   1.231647
     7  H    8.752686   8.011744   8.607333   7.548897   7.058408
     8  H    7.600062   7.091300   7.881739   6.804251   5.987415
     9  C    7.807223   7.045992   7.619644   6.654015   6.034105
    10  C    7.083224   6.456316   7.154599   6.177035   5.330144
    11  Cl   8.758659   7.792188   8.048752   7.312279   7.031767
    12  H    6.298501   6.029315   6.899567   6.035407   4.801310
    13  C    7.516860   6.623555   7.019198   6.245515   5.678815
    14  C    5.924142   5.301695   5.975275   5.192570   4.043051
    15  H    5.635575   5.300513   6.003906   5.577243   3.848050
    16  C    5.495606   5.127505   5.932335   5.195654   3.815180
    17  C    6.449955   5.516736   5.823463   5.289076   4.500612
    18  C    5.557162   4.746631   5.202930   4.686785   3.503707
    19  H    6.518033   5.502819   5.608057   5.308752   4.619647
    20  H    4.548294   4.280868   5.182695   4.328232   3.126114
    21  H    4.830347   4.212728   4.565196   4.655297   2.688065
    22  C    4.682089   3.873572   4.164454   4.129903   2.500183
    23  H    5.346497   4.463300   4.506299   4.757106   3.233633
    24  N    3.376201   2.468286   2.746554   2.743778   1.339532
    25  H    3.610353   2.553573   2.557191   2.614554   2.016289
                    6          7          8          9         10
     6  O    0.000000
     7  H    7.345175   0.000000
     8  H    5.893738   2.467554   0.000000
     9  C    6.333832   1.080719   2.148175   0.000000
    10  C    5.397342   2.159737   1.081367   1.406634   0.000000
    11  Cl   7.705597   2.868498   4.863575   2.717181   4.021922
    12  H    4.280802   4.664045   2.336045   4.003428   2.598015
    13  C    6.197885   2.161357   3.404632   1.405207   2.432716
    14  C    4.060772   3.425899   2.171041   2.449319   1.412119
    15  H    3.232636   5.403616   3.532901   4.510467   3.286852
    16  C    3.388806   4.675665   2.712551   3.821339   2.516775
    17  C    5.082933   3.415946   3.885716   2.434455   2.804521
    18  C    3.853364   3.916618   3.434297   2.835910   2.450383
    19  H    5.369274   4.300000   4.963770   3.405622   3.882711
    20  H    2.679284   5.264788   3.385283   4.401499   3.178659
    21  H    2.591210   5.935885   4.866614   4.874013   4.139547
    22  C    2.882443   5.443399   4.754274   4.362761   3.872161
    23  H    3.725277   5.814923   5.478099   4.758715   4.520221
    24  N    2.259751   6.216653   5.519805   5.163684   4.686669
    25  H    3.140832   6.379032   6.041176   5.364910   5.133231
                   11         12         13         14         15
    11  Cl   0.000000
    12  H    6.518490   0.000000
    13  C    1.726897   4.825068   0.000000
    14  C    4.550832   2.166925   2.825469   0.000000
    15  H    6.595396   1.760255   4.882362   2.170083   0.000000
    16  C    6.065434   1.091485   4.341439   1.517486   1.089181
    17  C    2.723032   4.606321   1.408969   2.439649   4.207011
    18  C    4.042891   3.466461   2.457231   1.419920   2.855375
    19  H    2.855893   5.570457   2.150904   3.419425   4.965037
    20  H    6.488186   1.759351   4.809683   2.149290   1.771035
    21  H    6.079570   3.783311   4.573613   2.770903   2.255138
    22  C    5.243075   4.118523   3.838202   2.588135   2.920637
    23  H    5.142762   5.055015   3.977478   3.382402   3.780335
    24  N    5.865609   4.761011   4.595556   3.438128   3.746592
    25  H    5.608255   5.582152   4.587292   4.039760   4.683658
                   16         17         18         19         20
    16  C    0.000000
    17  C    3.847771   0.000000
    18  C    2.566929   1.413812   0.000000
    19  H    4.723679   1.078387   2.163160   0.000000
    20  H    1.090256   4.205825   2.914354   4.983051   0.000000
    21  H    2.744877   3.376494   2.174895   3.673839   2.920323
    22  C    3.046852   2.528193   1.528322   2.709620   3.123902
    23  H    4.016314   2.597229   2.117070   2.399474   4.196570
    24  N    3.693204   3.316094   2.512277   3.316332   3.314455
    25  H    4.537280   3.323161   2.939544   3.057131   4.160559
                   21         22         23         24         25
    21  H    0.000000
    22  C    1.090623   0.000000
    23  H    1.731606   1.087679   0.000000
    24  N    2.119968   1.459184   2.055733   0.000000
    25  H    2.987927   2.121128   2.339377   1.019076   0.000000
 Stoichiometry    C10H12ClNO
 Framework group  C1[X(C10H12ClNO)]
 Deg. of freedom    69
 Full point group                 C1      NOp   1
 Largest Abelian subgroup         C1      NOp   1
 Largest concise Abelian subgroup C1      NOp   1
                         Standard orientation:                         
 ---------------------------------------------------------------------
 Center     Atomic      Atomic             Coordinates (Angstroms)
 Number     Number       Type             X           Y           Z
 ---------------------------------------------------------------------
      1          1           0        4.864542   -1.065408   -1.497426
      2          6           0        3.940274   -1.523263   -1.145356
      3          1           0        4.167656   -2.463741   -0.643900
      4          1           0        3.282634   -1.713390   -1.993670
      5          6           0        3.203888   -0.595436   -0.146248
      6          8           0        3.687915    0.499006    0.145074
      7          1           0       -3.516639    1.400783   -0.965240
      8          1           0       -1.577173    2.925550   -0.916476
      9          6           0       -2.583788    1.066819   -0.533719
     10          6           0       -1.475345    1.932226   -0.501394
     11         17           0       -3.788189   -1.341185   -0.167649
     12          1           0        0.627124    3.450779   -0.348748
     13          6           0       -2.462848   -0.241894   -0.036478
     14          6           0       -0.244649    1.506333    0.044576
     15          1           0        1.376199    2.593245    0.993644
     16          6           0        0.931096    2.464998    0.007870
     17          6           0       -1.244843   -0.664913    0.531598
     18          6           0       -0.128090    0.200196    0.589179
     19          1           0       -1.163165   -1.672406    0.907371
     20          1           0        1.694635    2.090769   -0.674493
     21          1           0        1.671939    0.497831    1.773020
     22          6           0        1.151811   -0.307220    1.252618
     23          1           0        0.848444   -1.003366    2.031332
     24          7           0        2.045726   -1.038276    0.360603
     25          1           0        1.774577   -1.991680    0.123926
 ---------------------------------------------------------------------
 Rotational constants (GHZ):      1.2579452      0.3456520      0.2932216
 Standard basis: 6-31G(d) (6D, 7F)
 There are   223 symmetry adapted cartesian basis functions of A   symmetry.
 There are   223 symmetry adapted basis functions of A   symmetry.
   223 basis functions,   436 primitive gaussians,   223 cartesian basis functions
    52 alpha electrons       52 beta electrons
       nuclear repulsion energy       838.9163367505 Hartrees.
 NAtoms=   25 NActive=   25 NUniq=   25 SFac= 1.00D+00 NAtFMM=   60 NAOKFM=F Big=F
 Integral buffers will be    131072 words long.
 Raffenetti 1 integral format.
 Two-electron integral symmetry is turned on.
 One-electron integrals computed using PRISM.
 NBasis=   223 RedAO= T EigKep=  4.37D-04  NBF=   223
 NBsUse=   223 1.00D-06 EigRej= -1.00D+00 NBFU=   223
 ExpMin= 1.43D-01 ExpMax= 2.52D+04 ExpMxC= 3.78D+03 IAcc=1 IRadAn=         1 AccDes= 0.00D+00
 Harris functional with IExCor=  205 and IRadAn=       1 diagonalized for initial guess.
 HarFok:  IExCor=  205 AccDes= 0.00D+00 IRadAn=         1 IDoV= 1 UseB2=F ITyADJ=14
 ICtDFT=  3500011 ScaDFX=  1.000000  1.000000  1.000000  1.000000
 FoFCou: FMM=F IPFlag=           0 FMFlag=      100000 FMFlg1=           0
         NFxFlg=           0 DoJE=T BraDBF=F KetDBF=T FulRan=T
         wScrn=  0.000000 ICntrl=     500 IOpCl=  0 I1Cent=   200000004 NGrid=           0
         NMat0=    1 NMatS0=      1 NMatT0=    0 NMatD0=    1 NMtDS0=    0 NMtDT0=    0
 Petite list used in FoFCou.
 Keep R1 ints in memory in canonical form, NReq=317703139.
 Requested convergence on RMS density matrix=1.00D-08 within 128 cycles.
 Requested convergence on MAX density matrix=1.00D-06.
 Requested convergence on             energy=1.00D-06.
 No special actions if energy rises.
 SCF Done:  E(RHF) =  -974.477223621     A.U. after   15 cycles
            NFock= 15  Conv=0.46D-08     -V/T= 2.0015

 **********************************************************************

            Population analysis using the SCF density.

 **********************************************************************

 Orbital symmetries:
 BldTbl:  Degeneracy threshold= 1.00D-02
       Occupied  (A) (A) (A) (A) (A) (A) (A) (A) (A) (A) (A) (A)
                 (A) (A) (A) (A) (A) (A) (A) (A) (A) (A) (A) (A)
                 (A) (A) (A) (A) (A) (A) (A) (A) (A) (A) (A) (A)
                 (A) (A) (A) (A) (A) (A) (A) (A) (A) (A) (A) (A)
                 (A) (A) (A) (A)
       Virtual   (A) (A) (A) (A) (A) (A) (A) (A) (A) (A) (A) (A)
                 (A) (A) (A) (A) (A) (A) (A) (A) (A) (A) (A) (A)
                 (A) (A) (A) (A) (A) (A) (A) (A) (A) (A) (A) (A)
                 (A) (A) (A) (A) (A) (A) (A) (A) (A) (A) (A) (A)
                 (A) (A) (A) (A) (A) (A) (A) (A) (A) (A) (A) (A)
                 (A) (A) (A) (A) (A) (A) (A) (A) (A) (A) (A) (A)
                 (A) (A) (A) (A) (A) (A) (A) (A) (A) (A) (A) (A)
                 (A) (A) (A) (A) (A) (A) (A) (A) (A) (A) (A) (A)
                 (A) (A) (A) (A) (A) (A) (A) (A) (A) (A) (A) (A)
                 (A) (A) (A) (A) (A) (A) (A) (A) (A) (A) (A) (A)
                 (A) (A) (A) (A) (A) (A) (A) (A) (A) (A) (A) (A)
                 (A) (A) (A) (A) (A) (A) (A) (A) (A) (A) (A) (A)
                 (A) (A) (A) (A) (A) (A) (A) (A) (A) (A) (A) (A)
                 (A) (A) (A) (A) (A) (A) (A) (A) (A) (A) (A) (A)
                 (A) (A) (A)
 The electronic state is 1-A.
 Alpha  occ. eigenvalues -- -104.82837 -20.51740 -15.59951 -11.35434 -11.30442
 Alpha  occ. eigenvalues --  -11.28399 -11.25792 -11.25667 -11.25621 -11.25376
 Alpha  occ. eigenvalues --  -11.24731 -11.24126 -11.21961 -10.56191  -8.03135
 Alpha  occ. eigenvalues --   -8.02799  -8.02795  -1.36995  -1.23892  -1.18499
 Alpha  occ. eigenvalues --   -1.12501  -1.04961  -1.02413  -1.00258  -0.94639
 Alpha  occ. eigenvalues --   -0.91057  -0.83539  -0.79221  -0.78587  -0.69455
 Alpha  occ. eigenvalues --   -0.67487  -0.66200  -0.65152  -0.64652  -0.61685
 Alpha  occ. eigenvalues --   -0.59056  -0.57764  -0.57370  -0.56731  -0.56260
 Alpha  occ. eigenvalues --   -0.54881  -0.54577  -0.53123  -0.52361  -0.49836
 Alpha  occ. eigenvalues --   -0.48684  -0.45504  -0.45330  -0.41301  -0.39259
 Alpha  occ. eigenvalues --   -0.34207  -0.31888
 Alpha virt. eigenvalues --    0.11952   0.12772   0.19567   0.20240   0.21350
 Alpha virt. eigenvalues --    0.24884   0.25673   0.27075   0.28762   0.29191
 Alpha virt. eigenvalues --    0.30515   0.31730   0.31835   0.32361   0.33543
 Alpha virt. eigenvalues --    0.34893   0.37915   0.38852   0.39825   0.40881
 Alpha virt. eigenvalues --    0.43996   0.44867   0.47266   0.51156   0.51600
 Alpha virt. eigenvalues --    0.52727   0.57411   0.58757   0.61612   0.62248
 Alpha virt. eigenvalues --    0.63551   0.66735   0.70834   0.72464   0.72751
 Alpha virt. eigenvalues --    0.74185   0.74879   0.76407   0.76516   0.77620
 Alpha virt. eigenvalues --    0.79489   0.81632   0.82065   0.83296   0.84445
 Alpha virt. eigenvalues --    0.84716   0.87179   0.88824   0.89026   0.92572
 Alpha virt. eigenvalues --    0.93461   0.93878   0.95686   0.97171   0.98711
 Alpha virt. eigenvalues --    0.99957   1.00599   1.03478   1.07582   1.08115
 Alpha virt. eigenvalues --    1.09934   1.11170   1.12000   1.13577   1.14169
 Alpha virt. eigenvalues --    1.14398   1.14722   1.15329   1.17229   1.17576
 Alpha virt. eigenvalues --    1.18301   1.18855   1.19656   1.21019   1.21714
 Alpha virt. eigenvalues --    1.23074   1.23825   1.26061   1.27937   1.29100
 Alpha virt. eigenvalues --    1.33639   1.35982   1.37988   1.39936   1.43082
 Alpha virt. eigenvalues --    1.44695   1.45445   1.48854   1.50020   1.56123
 Alpha virt. eigenvalues --    1.57840   1.61644   1.62514   1.64321   1.65613
 Alpha virt. eigenvalues --    1.67685   1.69990   1.71133   1.72739   1.75017
 Alpha virt. eigenvalues --    1.76424   1.80057   1.84075   1.89284   1.94699
 Alpha virt. eigenvalues --    1.97634   2.04252   2.05812   2.08279   2.10582
 Alpha virt. eigenvalues --    2.12177   2.12470   2.13982   2.17524   2.19296
 Alpha virt. eigenvalues --    2.22095   2.23195   2.24054   2.26731   2.27498
 Alpha virt. eigenvalues --    2.33680   2.36413   2.36697   2.38162   2.38864
 Alpha virt. eigenvalues --    2.45583   2.47004   2.49829   2.52075   2.52989
 Alpha virt. eigenvalues --    2.53911   2.56009   2.57721   2.61545   2.62649
 Alpha virt. eigenvalues --    2.65553   2.66578   2.69589   2.71825   2.74781
 Alpha virt. eigenvalues --    2.79537   2.79921   2.89940   2.92257   2.94058
 Alpha virt. eigenvalues --    2.96934   3.03173   3.05063   3.07932   3.09556
 Alpha virt. eigenvalues --    3.12018   3.13284   3.23875   3.27920   3.33809
 Alpha virt. eigenvalues --    3.43305   3.52865   3.71381   4.37728   4.45786
 Alpha virt. eigenvalues --    4.47084   4.51795   4.54987   4.61339   4.66103
 Alpha virt. eigenvalues --    4.72305   4.78128   4.79636   4.85614   4.90312
 Alpha virt. eigenvalues --    5.13854
          Condensed to atoms (all electrons):
               1          2          3          4          5          6
     1  H    0.452258   0.385320  -0.018713  -0.018666  -0.028812   0.003676
     2  C    0.385320   5.259768   0.371509   0.373558   0.369757  -0.070013
     3  H   -0.018713   0.371509   0.518576  -0.024395  -0.033370   0.001338
     4  H   -0.018666   0.373558  -0.024395   0.511875  -0.034054   0.001199
     5  C   -0.028812   0.369757  -0.033370  -0.034054   4.186838   0.594900
     6  O    0.003676  -0.070013   0.001338   0.001199   0.594900   8.191422
     7  H    0.000000   0.000000   0.000000   0.000000   0.000000   0.000000
     8  H    0.000000   0.000000   0.000000   0.000000   0.000000   0.000000
     9  C    0.000000   0.000000   0.000000   0.000000   0.000000   0.000000
    10  C    0.000000   0.000000   0.000000   0.000000  -0.000013  -0.000005
    11  Cl   0.000000   0.000000   0.000000   0.000000   0.000000   0.000000
    12  H    0.000000   0.000001   0.000000   0.000000   0.000025   0.000102
    13  C    0.000000   0.000000   0.000000   0.000000   0.000002   0.000000
    14  C    0.000000  -0.000026   0.000000   0.000006   0.000269  -0.000421
    15  H    0.000000  -0.000002   0.000000   0.000000  -0.000070  -0.000159
    16  C   -0.000001   0.000004   0.000000   0.000005  -0.000431  -0.001295
    17  C    0.000000  -0.000009   0.000000   0.000002   0.000004  -0.000009
    18  C    0.000001  -0.000152  -0.000002   0.000034  -0.000783  -0.000045
    19  H    0.000000   0.000000   0.000000   0.000000  -0.000003   0.000000
    20  H    0.000000   0.000048   0.000001  -0.000022   0.000699   0.004752
    21  H    0.000000   0.000199  -0.000013  -0.000005   0.000429   0.005019
    22  C   -0.000061   0.003694  -0.000160  -0.000215  -0.015388   0.005171
    23  H    0.000001  -0.000026   0.000000  -0.000004   0.002384   0.000300
    24  N    0.003427  -0.116418   0.003634   0.003743   0.238160  -0.103601
    25  H   -0.000007  -0.000035   0.000671   0.000309  -0.020143   0.002420
               7          8          9         10         11         12
     1  H    0.000000   0.000000   0.000000   0.000000   0.000000   0.000000
     2  C    0.000000   0.000000   0.000000   0.000000   0.000000   0.000001
     3  H    0.000000   0.000000   0.000000   0.000000   0.000000   0.000000
     4  H    0.000000   0.000000   0.000000   0.000000   0.000000   0.000000
     5  C    0.000000   0.000000   0.000000  -0.000013   0.000000   0.000025
     6  O    0.000000   0.000000   0.000000  -0.000005   0.000000   0.000102
     7  H    0.445255  -0.001297   0.380884  -0.025311   0.000748  -0.000006
     8  H   -0.001297   0.458982  -0.030520   0.382024  -0.000092   0.002081
     9  C    0.380884  -0.030520   4.947963   0.525868  -0.065658   0.000373
    10  C   -0.025311   0.382024   0.525868   4.933545   0.002530  -0.004036
    11  Cl   0.000748  -0.000092  -0.065658   0.002530  16.918635   0.000000
    12  H   -0.000006   0.002081   0.000373  -0.004036   0.000000   0.529414
    13  C   -0.030093   0.002215   0.532283  -0.041868   0.205070  -0.000012
    14  C    0.001877  -0.027266  -0.044212   0.558259   0.000210  -0.040057
    15  H    0.000002   0.000034  -0.000093   0.001687   0.000000  -0.026516
    16  C   -0.000096  -0.002482   0.003618  -0.043412   0.000004   0.391343
    17  C    0.002104   0.000219  -0.046528  -0.035036  -0.066159  -0.000062
    18  C    0.000268   0.002051  -0.028211  -0.038480   0.002375   0.003307
    19  H   -0.000103   0.000010   0.002190   0.000224   0.001127   0.000001
    20  H    0.000002   0.000096  -0.000111   0.000126   0.000000  -0.025081
    21  H    0.000000  -0.000001  -0.000004   0.000090   0.000001   0.000021
    22  C    0.000005  -0.000094   0.000087   0.002640  -0.000108   0.000140
    23  H    0.000000   0.000002  -0.000017  -0.000067  -0.000010   0.000001
    24  N    0.000000   0.000002  -0.000001   0.000015   0.000003  -0.000022
    25  H    0.000000   0.000000  -0.000002  -0.000001   0.000000   0.000000
              13         14         15         16         17         18
     1  H    0.000000   0.000000   0.000000  -0.000001   0.000000   0.000001
     2  C    0.000000  -0.000026  -0.000002   0.000004  -0.000009  -0.000152
     3  H    0.000000   0.000000   0.000000   0.000000   0.000000  -0.000002
     4  H    0.000000   0.000006   0.000000   0.000005   0.000002   0.000034
     5  C    0.000002   0.000269  -0.000070  -0.000431   0.000004  -0.000783
     6  O    0.000000  -0.000421  -0.000159  -0.001295  -0.000009  -0.000045
     7  H   -0.030093   0.001877   0.000002  -0.000096   0.002104   0.000268
     8  H    0.002215  -0.027266   0.000034  -0.002482   0.000219   0.002051
     9  C    0.532283  -0.044212  -0.000093   0.003618  -0.046528  -0.028211
    10  C   -0.041868   0.558259   0.001687  -0.043412  -0.035036  -0.038480
    11  Cl   0.205070   0.000210   0.000000   0.000004  -0.066159   0.002375
    12  H   -0.000012  -0.040057  -0.026516   0.391343  -0.000062   0.003307
    13  C    5.046311  -0.028869   0.000004   0.000128   0.524283  -0.040077
    14  C   -0.028869   4.815543  -0.038876   0.320133  -0.037520   0.573482
    15  H    0.000004  -0.038876   0.515535   0.393188   0.000036  -0.003969
    16  C    0.000128   0.320133   0.393188   5.110593   0.002813  -0.047416
    17  C    0.524283  -0.037520   0.000036   0.002813   4.989494   0.532054
    18  C   -0.040077   0.573482  -0.003969  -0.047416   0.532054   4.902164
    19  H   -0.028286   0.001918   0.000000  -0.000087   0.381007  -0.031851
    20  H    0.000027  -0.036304  -0.023976   0.389358  -0.000057  -0.004050
    21  H   -0.000033  -0.002278   0.001675  -0.000413   0.002656  -0.039195
    22  C    0.002101  -0.034236  -0.000861  -0.009318  -0.043383   0.330793
    23  H    0.000261   0.002049   0.000046   0.000099  -0.002864  -0.060824
    24  N    0.000033   0.001362  -0.000122   0.001005  -0.000637  -0.071387
    25  H    0.000003   0.000049   0.000001  -0.000007   0.001384   0.000797
              19         20         21         22         23         24
     1  H    0.000000   0.000000   0.000000  -0.000061   0.000001   0.003427
     2  C    0.000000   0.000048   0.000199   0.003694  -0.000026  -0.116418
     3  H    0.000000   0.000001  -0.000013  -0.000160   0.000000   0.003634
     4  H    0.000000  -0.000022  -0.000005  -0.000215  -0.000004   0.003743
     5  C   -0.000003   0.000699   0.000429  -0.015388   0.002384   0.238160
     6  O    0.000000   0.004752   0.005019   0.005171   0.000300  -0.103601
     7  H   -0.000103   0.000002   0.000000   0.000005   0.000000   0.000000
     8  H    0.000010   0.000096  -0.000001  -0.000094   0.000002   0.000002
     9  C    0.002190  -0.000111  -0.000004   0.000087  -0.000017  -0.000001
    10  C    0.000224   0.000126   0.000090   0.002640  -0.000067   0.000015
    11  Cl   0.001127   0.000000   0.000001  -0.000108  -0.000010   0.000003
    12  H    0.000001  -0.025081   0.000021   0.000140   0.000001  -0.000022
    13  C   -0.028286   0.000027  -0.000033   0.002101   0.000261   0.000033
    14  C    0.001918  -0.036304  -0.002278  -0.034236   0.002049   0.001362
    15  H    0.000000  -0.023976   0.001675  -0.000861   0.000046  -0.000122
    16  C   -0.000087   0.389358  -0.000413  -0.009318   0.000099   0.001005
    17  C    0.381007  -0.000057   0.002656  -0.043383  -0.002864  -0.000637
    18  C   -0.031851  -0.004050  -0.039195   0.330793  -0.060824  -0.071387
    19  H    0.459917   0.000001   0.000057  -0.002117   0.001663   0.000284
    20  H    0.000001   0.483086  -0.000776   0.000498  -0.000023  -0.000220
    21  H    0.000057  -0.000776   0.441101   0.405656  -0.022867  -0.031651
    22  C   -0.002117   0.000498   0.405656   4.933992   0.423535   0.178847
    23  H    0.001663  -0.000023  -0.022867   0.423535   0.517331  -0.049087
    24  N    0.000284  -0.000220  -0.031651   0.178847  -0.049087   7.394595
    25  H    0.000208  -0.000013   0.002358  -0.023355  -0.002746   0.321950
              25
     1  H   -0.000007
     2  C   -0.000035
     3  H    0.000671
     4  H    0.000309
     5  C   -0.020143
     6  O    0.002420
     7  H    0.000000
     8  H    0.000000
     9  C   -0.000002
    10  C   -0.000001
    11  Cl   0.000000
    12  H    0.000000
    13  C    0.000003
    14  C    0.000049
    15  H    0.000001
    16  C   -0.000007
    17  C    0.001384
    18  C    0.000797
    19  H    0.000208
    20  H   -0.000013
    21  H    0.002358
    22  C   -0.023355
    23  H   -0.002746
    24  N    0.321950
    25  H    0.331063
 Mulliken charges:
               1
     1  H    0.221576
     2  C   -0.577178
     3  H    0.180924
     4  H    0.186631
     5  C    0.739599
     6  O   -0.634751
     7  H    0.225762
     8  H    0.214037
     9  C   -0.177909
    10  C   -0.218780
    11  Cl   0.001324
    12  H    0.168983
    13  C   -0.143483
    14  C    0.014907
    15  H    0.182436
    16  C   -0.507333
    17  C   -0.203791
    18  C    0.019113
    19  H    0.213839
    20  H    0.211941
    21  H    0.237972
    22  C   -0.157863
    23  H    0.190862
    24  N   -0.773912
    25  H    0.385097
 Sum of Mulliken charges =   0.00000
 Mulliken charges with hydrogens summed into heavy atoms:
               1
     2  C    0.011953
     5  C    0.739599
     6  O   -0.634751
     9  C    0.047853
    10  C   -0.004743
    11  Cl   0.001324
    13  C   -0.143483
    14  C    0.014907
    16  C    0.056027
    17  C    0.010047
    18  C    0.019113
    22  C    0.270971
    24  N   -0.388816
 DipInt: DoE/N= T F RetVal/Mat= T F Init=T NMatP=  1 IDeriv=0 Min/MaxMlt=  0  4
 Entering OneElI...
 OneElI was handed  2147353573 working-precision words.
 Multipole integrals L=0 to 4 MinM= 0 MaxM= 0.
 Requested accuracy = 0.1000D-12
 ShPair: Thresh= 1.00D-13 NBox=     0 BxSize= 0.00D+00 RnKept= 1.66D+01
         NSMCal=                 3003 NSMKep=                2639
 PrsmSu:  NPrtUS=   1 ThrOK=F IAlg=1 NPAlg=1 LenDen=           0.
 Prism:   IPart=     0 DynPar=F LinDyn=F Incr=          26.
 PRISM was handed  2147117256 working-precision words and  2639 shell-pairs
 IPart=  0 NShTot=        2639 NBatch=          56 AvBLen=        47.1
 PrSmSu:  NxtVal=             27.
 Electronic moments (au):
       -104.00000000         -0.04917752         -0.73999356         -0.16652142
      -2677.45516782       -738.60218860       -219.25513714        -10.71883071
         -1.23144055         -1.62028880       -593.00437779      -1018.51616752
        -34.27161746         49.81954013       3171.38752566       1443.82751250
       -423.08014347        123.46901609        306.52068341       -516.74226830
    -123270.81812557     -12643.20041336      -1782.33582516      -2583.76475959
       4690.95737858        286.83484685         82.26333768        539.57089325
       -200.31822971     -16281.85323378      -5464.73695323      -1494.18923141
      -3271.21443601        481.56563211       1267.08267980
 Electronic spatial extent (au):  <R**2>=           3635.3125
 DipInt: DoE/N= F T RetVal/Mat= T F Init=T NMatP=  1 IDeriv=0 Min/MaxMlt=  0  4
 Nuclear    moments (au):
        104.00000000          0.00000000          0.00000000          0.00000000
       2603.54440025        681.93968689        157.34818534          0.00000000
          0.00000000          0.00000000        565.82166389       1008.47757881
         37.85676837        -38.90870651      -3208.33094595      -1477.56761900
        438.74329323       -127.71674517       -311.85033532        529.28449233
     113457.36081801      10155.95701732       1003.09179775       2149.87815312
      -4806.45440954       -309.82158641       -137.46357702       -528.64257843
        207.61734078      14364.36161757       3815.80056179        926.35162123
       3258.91639364       -450.74791412      -1253.87118698
 Total      moments (au):
          0.00000000         -0.04917752         -0.73999356         -0.16652142
        -73.91076757        -56.66250171        -61.90695180        -10.71883071
         -1.23144055         -1.62028880        -27.18271390        -10.03858870
          3.58515092         10.91083362        -36.94342029        -33.74010650
         15.66314977         -4.24772908         -5.32965191         12.54222403
      -9813.45730757      -2487.24339603       -779.24402740       -433.88660647
       -115.49703096        -22.98673956        -55.20023934         10.92831482
          7.29911107      -1917.49161621      -1648.93639143       -567.83761018
        -12.29804237         30.81771799         13.21149282
 Traceless Quadrup. (au):
         -9.75069388          7.49757199          2.25312189        -10.71883071
         -1.23144055         -1.62028880
 Charge=              0.0000 electrons
 Dipole moment (field-independent basis, Debye):
    X=             -0.1250    Y=             -1.8809    Z=             -0.4233  Tot=              1.9320
 Quadrupole moment (field-independent basis, Debye-Ang):
   XX=            -99.4125   YY=            -76.2130   ZZ=            -83.2670
   XY=            -14.4172   XZ=             -1.6563   YZ=             -2.1793
 Traceless Quadrupole moment (field-independent basis, Debye-Ang):
   XX=            -13.1150   YY=             10.0845   ZZ=              3.0305
   XY=            -14.4172   XZ=             -1.6563   YZ=             -2.1793
 Octapole moment (field-independent basis, Debye-Ang**2):
  XXX=            -19.3476  YYY=             -7.1451  ZZZ=              2.5518  XYY=              7.7659
  XXY=            -26.2949  XXZ=            -24.0149  XZZ=             11.1484  YZZ=             -3.0234
  YYZ=             -3.7934  XYZ=              8.9271
 Hexadecapole moment (field-independent basis, Debye-Ang**3):
 XXXX=          -3696.2183 YYYY=           -936.8151 ZZZZ=           -293.5006 XXXY=           -163.4225
 XXXZ=            -43.5017 YYYX=             -8.6579 YYYZ=            -20.7911 ZZZX=              4.1161
 ZZZY=              2.7492 XXYY=           -722.2192 XXZZ=           -621.0685 YYZZ=           -213.8749
 XXYZ=             -4.6320 YYXZ=             11.6074 ZZXY=              4.9761
 N-N= 8.389163367505D+02 E-N=-3.974037125026D+03  KE= 9.729764273800D+02
 Entering OneElI...
 OneElI was handed  2147377701 working-precision words.
 Calculate electrostatic properties
    NBasis =   223  MinDer = 0  MaxDer = 0
    NGrid  =    25  NMatD  =   1
 Requested accuracy = 0.1000D-12
 PrtBox:  NBox=     1 Levels=  1 BoxLen=   32.45 SMaxX=       16.35
          Shift=            7.158639            4.655795            3.767490
 Box      1 Number                   0 centers from      1 to     77:
 ShPair: Thresh= 1.00D-13 NBox=     1 BxSize= 3.24D+01 RnKept= 1.66D+01
         NSMCal=                 3003 NSMKep=                2409
 PrsmSu:  NPrtUS=   4 ThrOK=T IAlg=1 NPAlg=1 LenDen=           0.
 Prism:   IPart=     0 DynPar=F LinDyn=F Incr=         150.
 PRISM was handed   536732586 working-precision words and  2409 shell-pairs
 PRISM was handed   536732586 working-precision words and  2409 shell-pairs
 PRISM was handed   536732586 working-precision words and  2409 shell-pairs
 PRISM was handed   536732586 working-precision words and  2409 shell-pairs
 IPart=  3 NShTot=       14600 NBatch=         584 AvBLen=        25.0
 IPart=  0 NShTot=       15600 NBatch=         624 AvBLen=        25.0
 IPart=  2 NShTot=       14825 NBatch=         593 AvBLen=        25.0
 IPart=  1 NShTot=       15200 NBatch=         608 AvBLen=        25.0
 PrSmSu:  NxtVal=            601.
 --------------------------------------------------------
       Center         ----      EFG at Nuclei      ----
                      3XX-RR        3YY-RR        3ZZ-RR
 --------------------------------------------------------
     1   Atom       -0.174240      0.070276      0.103963
     2   Atom        0.019261      0.009152     -0.028413
     3   Atom        0.134211     -0.189941      0.055730
     4   Atom       -0.016825      0.141309     -0.124484
     5   Atom        0.004701      0.198090     -0.202790
     6   Atom        0.641082     -0.818567      0.177485
     7   Atom       -0.195370      0.103780      0.091589
     8   Atom        0.143240     -0.242066      0.098826
     9   Atom        0.141842      0.094332     -0.236174
    10   Atom        0.137301      0.086111     -0.223412
    11   Atom       -1.353425     -0.375998      1.729423
    12   Atom        0.107828     -0.217154      0.109325
    13   Atom       -0.061994      0.065957     -0.003963
    14   Atom        0.140398      0.110001     -0.250399
    15   Atom        0.081238      0.142755     -0.223993
    16   Atom        0.003931     -0.035497      0.031566
    17   Atom        0.110445      0.095104     -0.205549
    18   Atom        0.082021      0.118845     -0.200866
    19   Atom        0.145859     -0.257297      0.111437
    20   Atom       -0.066835      0.091201     -0.024366
    21   Atom        0.044680     -0.095286      0.050605
    22   Atom       -0.035746      0.093364     -0.057618
    23   Atom        0.113562     -0.036633     -0.076929
    24   Atom       -0.129926     -0.345611      0.475537
    25   Atom        0.127578     -0.298026      0.170447
 --------------------------------------------------------
                        XY            XZ            YZ
 --------------------------------------------------------
     1   Atom       -0.160753      0.125232      0.059473
     2   Atom        0.056423      0.033304     -0.039109
     3   Atom        0.084733     -0.037285      0.180971
     4   Atom       -0.046641     -0.211626     -0.067124
     5   Atom        0.149578     -0.281007      0.316282
     6   Atom       -0.481063     -1.176227      0.226154
     7   Atom        0.121674     -0.165557      0.064363
     8   Atom        0.036220     -0.022721      0.170108
     9   Atom        0.070912      0.123451     -0.120204
    10   Atom        0.046071      0.124769     -0.130463
    11   Atom       -2.651083     -0.319132     -0.326919
    12   Atom        0.113042     -0.045667      0.134942
    13   Atom       -0.261045      0.093352     -0.147953
    14   Atom        0.038978      0.142941     -0.169876
    15   Atom       -0.028427     -0.170923     -0.043353
    16   Atom       -0.071454     -0.002705      0.013592
    17   Atom        0.075711      0.116362     -0.118818
    18   Atom        0.056305      0.095417     -0.133268
    19   Atom        0.033680     -0.021297      0.161288
    20   Atom        0.101761      0.201047     -0.098644
    21   Atom       -0.146818     -0.098305     -0.157555
    22   Atom        0.178581      0.142887     -0.098495
    23   Atom       -0.076152      0.095039      0.205440
    24   Atom       -0.228528      0.615542     -0.445273
    25   Atom       -0.146194      0.002133     -0.134965
 --------------------------------------------------------


 ---------------------------------------------------------------------------------
              Nuclear Quadrupole Coupling Constant in Principal Axis System
 ---------------------------------------------------------------------------------

       Atom             a.u.   MegaHertz   Gauss  10(-4) cm-1        Axes

              Baa    -3.5992   -69.051   -24.639   -23.033  0.7653  0.6381  0.0850
    11 Cl(35) Bbb     1.7432    33.442    11.933    11.155 -0.3591  0.3136  0.8790
              Bcc     1.8561    35.608    12.706    11.878 -0.5342  0.7032 -0.4691
 
              Baa    -0.5587     2.683     0.957     0.895 -0.4191  0.7164  0.5579
    24 N(14)  Bbb    -0.4800     2.305     0.823     0.769  0.7647  0.6097 -0.2085
              Bcc     1.0386    -4.988    -1.780    -1.664  0.4895 -0.3392  0.8033
 

 ---------------------------------------------------------------------------------

 No NMR shielding tensors so no spin-rotation constants.
 Leave Link  601 at Wed Nov 29 20:20:13 2017, MaxMem=  2147483648 cpu:         0.5
 FitSet:  NAtFit=    25 NAtPot=    25 NAtFrz=     0 MDM=    29 TotChg=   0.00000
 Merz-Kollman atomic radii used.
 Atom Element Radius
    1     1    1.20
    2     6    1.50
    3     1    1.20
    4     1    1.20
    5     6    1.50
    6     8    1.40
    7     1    1.20
    8     1    1.20
    9     6    1.50
   10     6    1.50
   11    17    1.70
   12     1    1.20
   13     6    1.50
   14     6    1.50
   15     1    1.20
   16     6    1.50
   17     6    1.50
   18     6    1.50
   19     1    1.20
   20     1    1.20
   21     1    1.20
   22     6    1.50
   23     1    1.20
   24     7    1.50
   25     1    1.20
 Generate VDW surfaces: Layer= 4 Dens= 6 Start= 1.400 Inc= 0.200

 **********************************************************************

            Electrostatic Properties Using The SCF Density

 **********************************************************************

       Atomic Center    1 is at   4.864542 -1.065408 -1.497426
       Atomic Center    2 is at   3.940274 -1.523263 -1.145356
       Atomic Center    3 is at   4.167656 -2.463741 -0.643900
       Atomic Center    4 is at   3.282634 -1.713390 -1.993670
       Atomic Center    5 is at   3.203888 -0.595436 -0.146248
       Atomic Center    6 is at   3.687915  0.499006  0.145074
       Atomic Center    7 is at  -3.516639  1.400783 -0.965240
       Atomic Center    8 is at  -1.577173  2.925550 -0.916476
       Atomic Center    9 is at  -2.583788  1.066819 -0.533719
       Atomic Center   10 is at  -1.475345  1.932226 -0.501394
       Atomic Center   11 is at  -3.788189 -1.341185 -0.167649
       Atomic Center   12 is at   0.627124  3.450779 -0.348748
       Atomic Center   13 is at  -2.462848 -0.241894 -0.036478
       Atomic Center   14 is at  -0.244649  1.506333  0.044576
       Atomic Center   15 is at   1.376199  2.593245  0.993644
       Atomic Center   16 is at   0.931096  2.464998  0.007870
       Atomic Center   17 is at  -1.244843 -0.664913  0.531598
       Atomic Center   18 is at  -0.128090  0.200196  0.589179
       Atomic Center   19 is at  -1.163165 -1.672406  0.907371
       Atomic Center   20 is at   1.694635  2.090769 -0.674493
       Atomic Center   21 is at   1.671939  0.497831  1.773020
       Atomic Center   22 is at   1.151811 -0.307220  1.252618
       Atomic Center   23 is at   0.848444 -1.003366  2.031332
       Atomic Center   24 is at   2.045726 -1.038276  0.360603
       Atomic Center   25 is at   1.774577 -1.991680  0.123926
      ESP Fit Center   26 is at   5.704542 -1.065408 -0.042503
      ESP Fit Center   27 is at   5.592003 -0.645408 -0.042503
      ESP Fit Center   28 is at   6.052481 -1.065408 -0.309487
      ESP Fit Center   29 is at   5.972262 -0.636275 -0.309487
      ESP Fit Center   30 is at   5.742440 -0.265098 -0.309487
      ESP Fit Center   31 is at   5.972262 -1.494541 -0.309487
      ESP Fit Center   32 is at   6.319465 -1.065408 -0.657426
      ESP Fit Center   33 is at   6.254826 -0.636562 -0.657426
      ESP Fit Center   34 is at   6.066655 -0.245821 -0.657426
      ESP Fit Center   35 is at   5.771671  0.072096 -0.657426
      ESP Fit Center   36 is at   6.066655 -1.884995 -0.657426
      ESP Fit Center   37 is at   6.254826 -1.494254 -0.657426
      ESP Fit Center   38 is at   6.487297 -1.065408 -1.062610
      ESP Fit Center   39 is at   6.432003 -0.645408 -1.062610
      ESP Fit Center   40 is at   6.269889 -0.254030 -1.062610
      ESP Fit Center   41 is at   6.012003  0.082053 -1.062610
      ESP Fit Center   42 is at   5.675920  0.339939 -1.062610
      ESP Fit Center   43 is at   5.284542  0.502053 -1.062610
      ESP Fit Center   44 is at   6.012003 -2.212869 -1.062610
      ESP Fit Center   45 is at   6.269889 -1.876786 -1.062610
      ESP Fit Center   46 is at   6.432003 -1.485408 -1.062610
      ESP Fit Center   47 is at   6.544542 -1.065408 -1.497426
      ESP Fit Center   48 is at   6.491762 -0.647609 -1.497426
      ESP Fit Center   49 is at   6.336737 -0.256062 -1.497426
      ESP Fit Center   50 is at   6.089209  0.084631 -1.497426
      ESP Fit Center   51 is at   5.764731  0.353063 -1.497426
      ESP Fit Center   52 is at   5.383690  0.532367 -1.497426
      ESP Fit Center   53 is at   4.970030  0.611277 -1.497426
      ESP Fit Center   54 is at   6.089209 -2.215447 -1.497426
      ESP Fit Center   55 is at   6.336737 -1.874754 -1.497426
      ESP Fit Center   56 is at   6.491762 -1.483207 -1.497426
      ESP Fit Center   57 is at   6.487297 -1.065408 -1.932242
      ESP Fit Center   58 is at   6.432003 -0.645408 -1.932242
      ESP Fit Center   59 is at   6.269889 -0.254030 -1.932242
      ESP Fit Center   60 is at   6.012003  0.082053 -1.932242
      ESP Fit Center   61 is at   5.675920  0.339939 -1.932242
      ESP Fit Center   62 is at   5.284542  0.502053 -1.932242
      ESP Fit Center   63 is at   4.864542  0.557347 -1.932242
      ESP Fit Center   64 is at   4.444542  0.502053 -1.932242
      ESP Fit Center   65 is at   5.675920 -2.470755 -1.932242
      ESP Fit Center   66 is at   6.012003 -2.212869 -1.932242
      ESP Fit Center   67 is at   6.269889 -1.876786 -1.932242
      ESP Fit Center   68 is at   6.432003 -1.485408 -1.932242
      ESP Fit Center   69 is at   6.319465 -1.065408 -2.337426
      ESP Fit Center   70 is at   6.254826 -0.636562 -2.337426
      ESP Fit Center   71 is at   6.066655 -0.245821 -2.337426
      ESP Fit Center   72 is at   5.771671  0.072096 -2.337426
      ESP Fit Center   73 is at   5.396085  0.288941 -2.337426
      ESP Fit Center   74 is at   4.973268  0.385446 -2.337426
      ESP Fit Center   75 is at   4.540791  0.353037 -2.337426
      ESP Fit Center   76 is at   4.137081  0.194592 -2.337426
      ESP Fit Center   77 is at   5.771671 -2.202912 -2.337426
      ESP Fit Center   78 is at   6.066655 -1.884995 -2.337426
      ESP Fit Center   79 is at   6.254826 -1.494254 -2.337426
      ESP Fit Center   80 is at   6.052481 -1.065408 -2.685365
      ESP Fit Center   81 is at   5.972262 -0.636275 -2.685365
      ESP Fit Center   82 is at   5.742440 -0.265098 -2.685365
      ESP Fit Center   83 is at   5.394052 -0.002008 -2.685365
      ESP Fit Center   84 is at   4.974151  0.117464 -2.685365
      ESP Fit Center   85 is at   4.539447  0.077183 -2.685365
      ESP Fit Center   86 is at   5.394052 -2.128808 -2.685365
      ESP Fit Center   87 is at   5.742440 -1.865718 -2.685365
      ESP Fit Center   88 is at   5.972262 -1.494541 -2.685365
      ESP Fit Center   89 is at   5.704542 -1.065408 -2.952349
      ESP Fit Center   90 is at   5.592003 -0.645408 -2.952349
      ESP Fit Center   91 is at   5.284542 -0.337947 -2.952349
      ESP Fit Center   92 is at   4.864542 -0.225408 -2.952349
      ESP Fit Center   93 is at   4.444542 -0.337947 -2.952349
      ESP Fit Center   94 is at   5.284542 -1.792869 -2.952349
      ESP Fit Center   95 is at   5.592003 -1.485408 -2.952349
      ESP Fit Center   96 is at   5.299358 -1.065408 -3.120181
      ESP Fit Center   97 is at   5.081950 -0.688846 -3.120181
      ESP Fit Center   98 is at   4.647134 -0.688846 -3.120181
      ESP Fit Center   99 is at   5.081950 -1.441970 -3.120181
      ESP Fit Center  100 is at   4.864542 -1.065408 -3.177426
      ESP Fit Center  101 is at   5.106971 -1.523263  0.600730
      ESP Fit Center  102 is at   5.425198 -1.523263  0.339569
      ESP Fit Center  103 is at   5.365048 -1.104911  0.339569
      ESP Fit Center  104 is at   5.686360 -1.523263  0.021342
      ESP Fit Center  105 is at   5.635622 -1.105397  0.021342
      ESP Fit Center  106 is at   5.635622 -1.941129  0.021342
      ESP Fit Center  107 is at   5.835061 -1.940337 -0.341720
      ESP Fit Center  108 is at   2.455350 -3.008187 -1.145356
      ESP Fit Center  109 is at   2.773576 -3.269349 -1.145356
      ESP Fit Center  110 is at   3.033216 -3.372425 -1.555045
      ESP Fit Center  111 is at   5.630758 -2.699875 -1.555045
      ESP Fit Center  112 is at   4.045311  0.414039 -1.948991
      ESP Fit Center  113 is at   3.626393 -3.437851 -1.948991
      ESP Fit Center  114 is at   5.196298 -3.001969 -1.948991
      ESP Fit Center  115 is at   5.484811 -2.697390 -1.948991
      ESP Fit Center  116 is at   3.729806  0.210093 -2.312053
      ESP Fit Center  117 is at   3.321103  0.109356 -2.312053
      ESP Fit Center  118 is at   2.948384 -0.086262 -2.312053
      ESP Fit Center  119 is at   4.150741 -3.256618 -2.312053
      ESP Fit Center  120 is at   4.559444 -3.155882 -2.312053
      ESP Fit Center  121 is at   4.932164 -2.960264 -2.312053
      ESP Fit Center  122 is at   5.247238 -2.681132 -2.312053
      ESP Fit Center  123 is at   3.728947 -0.053453 -2.630280
      ESP Fit Center  124 is at   4.557134 -2.873997 -2.630280
      ESP Fit Center  125 is at   4.912692 -2.645494 -2.630280
      ESP Fit Center  126 is at   5.189472 -2.326073 -2.630280
      ESP Fit Center  127 is at   4.047923 -0.361542 -2.891442
      ESP Fit Center  128 is at   4.460316 -2.567648 -2.891442
      ESP Fit Center  129 is at   4.802474 -2.309262 -2.891442
      ESP Fit Center  130 is at   4.342091 -0.827294 -3.085503
      ESP Fit Center  131 is at   4.636242 -1.925080 -3.085503
      ESP Fit Center  132 is at   4.167656 -2.463741  1.036100
      ESP Fit Center  133 is at   4.602472 -2.463741  0.978855
      ESP Fit Center  134 is at   4.385064 -2.087179  0.978855
      ESP Fit Center  135 is at   3.732840 -2.463741  0.978855
      ESP Fit Center  136 is at   3.950248 -2.840302  0.978855
      ESP Fit Center  137 is at   4.385064 -2.840302  0.978855
      ESP Fit Center  138 is at   5.007656 -2.463741  0.811022
      ESP Fit Center  139 is at   4.895117 -2.043741  0.811022
      ESP Fit Center  140 is at   3.440194 -2.883741  0.811022
      ESP Fit Center  141 is at   3.747656 -3.191202  0.811022
      ESP Fit Center  142 is at   4.167656 -3.303741  0.811022
      ESP Fit Center  143 is at   4.587656 -3.191202  0.811022
      ESP Fit Center  144 is at   4.895117 -2.883741  0.811022
      ESP Fit Center  145 is at   5.355595 -2.463741  0.544039
      ESP Fit Center  146 is at   5.275376 -2.034608  0.544039
      ESP Fit Center  147 is at   3.157649 -3.089110  0.544039
      ESP Fit Center  148 is at   3.451762 -3.411737  0.544039
      ESP Fit Center  149 is at   3.842561 -3.606331  0.544039
      ESP Fit Center  150 is at   4.277265 -3.646613  0.544039
      ESP Fit Center  151 is at   4.697166 -3.527140  0.544039
      ESP Fit Center  152 is at   5.045553 -3.264050  0.544039
      ESP Fit Center  153 is at   5.275376 -2.892874  0.544039
      ESP Fit Center  154 is at   5.622578 -2.463741  0.196100
      ESP Fit Center  155 is at   5.557940 -2.034895  0.196100
      ESP Fit Center  156 is at   3.101122 -3.453339  0.196100
      ESP Fit Center  157 is at   3.440194 -3.723741  0.196100
      ESP Fit Center  158 is at   3.843905 -3.882185  0.196100
      ESP Fit Center  159 is at   4.276382 -3.914595  0.196100
      ESP Fit Center  160 is at   4.699199 -3.818090  0.196100
      ESP Fit Center  161 is at   5.074785 -3.601245  0.196100
      ESP Fit Center  162 is at   5.369769 -3.283328  0.196100
      ESP Fit Center  163 is at   5.557940 -2.892587  0.196100
      ESP Fit Center  164 is at   5.790411 -2.463741 -0.209084
      ESP Fit Center  165 is at   3.020194 -3.611202 -0.209084
      ESP Fit Center  166 is at   3.356278 -3.869088 -0.209084
      ESP Fit Center  167 is at   3.747656 -4.031202 -0.209084
      ESP Fit Center  168 is at   4.167656 -4.086496 -0.209084
      ESP Fit Center  169 is at   4.587656 -4.031202 -0.209084
      ESP Fit Center  170 is at   4.979033 -3.869088 -0.209084
      ESP Fit Center  171 is at   5.315117 -3.611202 -0.209084
      ESP Fit Center  172 is at   5.573003 -3.275118 -0.209084
      ESP Fit Center  173 is at   5.735117 -2.883741 -0.209084
      ESP Fit Center  174 is at   5.847656 -2.463741 -0.643900
      ESP Fit Center  175 is at   2.808507 -3.451220 -0.643900
      ESP Fit Center  176 is at   3.096783 -3.758203 -0.643900
      ESP Fit Center  177 is at   3.452346 -3.983850 -0.643900
      ESP Fit Center  178 is at   3.852855 -4.113983 -0.643900
      ESP Fit Center  179 is at   4.273144 -4.140426 -0.643900
      ESP Fit Center  180 is at   4.686804 -4.061516 -0.643900
      ESP Fit Center  181 is at   5.067845 -3.882212 -0.643900
      ESP Fit Center  182 is at   5.392323 -3.613780 -0.643900
      ESP Fit Center  183 is at   5.639851 -3.273087 -0.643900
      ESP Fit Center  184 is at   5.794875 -2.881540 -0.643900
      ESP Fit Center  185 is at   2.762308 -3.275118 -1.078716
      ESP Fit Center  186 is at   3.020194 -3.611202 -1.078716
      ESP Fit Center  187 is at   3.356278 -3.869088 -1.078716
      ESP Fit Center  188 is at   3.747656 -4.031202 -1.078716
      ESP Fit Center  189 is at   4.167656 -4.086496 -1.078716
      ESP Fit Center  190 is at   4.587656 -4.031202 -1.078716
      ESP Fit Center  191 is at   4.979033 -3.869088 -1.078716
      ESP Fit Center  192 is at   5.315117 -3.611202 -1.078716
      ESP Fit Center  193 is at   5.573003 -3.275118 -1.078716
      ESP Fit Center  194 is at   5.735117 -2.883741 -1.078716
      ESP Fit Center  195 is at   3.101122 -3.453339 -1.483900
      ESP Fit Center  196 is at   3.440194 -3.723741 -1.483900
      ESP Fit Center  197 is at   3.843905 -3.882185 -1.483900
      ESP Fit Center  198 is at   4.276382 -3.914595 -1.483900
      ESP Fit Center  199 is at   4.699199 -3.818090 -1.483900
      ESP Fit Center  200 is at   5.074785 -3.601245 -1.483900
      ESP Fit Center  201 is at   5.369769 -3.283328 -1.483900
      ESP Fit Center  202 is at   5.557940 -2.892587 -1.483900
      ESP Fit Center  203 is at   3.842561 -3.606331 -1.831840
      ESP Fit Center  204 is at   4.277265 -3.646613 -1.831840
      ESP Fit Center  205 is at   4.697166 -3.527140 -1.831840
      ESP Fit Center  206 is at   5.045553 -3.264050 -1.831840
      ESP Fit Center  207 is at   1.715172 -2.133390 -1.558854
      ESP Fit Center  208 is at   1.877286 -2.524767 -1.558854
      ESP Fit Center  209 is at   2.135172 -2.860851 -1.558854
      ESP Fit Center  210 is at   2.471256 -3.118737 -1.558854
      ESP Fit Center  211 is at   2.862634 -3.280851 -1.558854
      ESP Fit Center  212 is at   2.211762 -0.418927 -1.993670
      ESP Fit Center  213 is at   1.923485 -0.725910 -1.993670
      ESP Fit Center  214 is at   1.720609 -1.094940 -1.993670
      ESP Fit Center  215 is at   1.615881 -1.502830 -1.993670
      ESP Fit Center  216 is at   1.615881 -1.923949 -1.993670
      ESP Fit Center  217 is at   1.720609 -2.331839 -1.993670
      ESP Fit Center  218 is at   1.923485 -2.700869 -1.993670
      ESP Fit Center  219 is at   2.211762 -3.007852 -1.993670
      ESP Fit Center  220 is at   2.567325 -3.233499 -1.993670
      ESP Fit Center  221 is at   2.967833 -3.363632 -1.993670
      ESP Fit Center  222 is at   3.388122 -3.390074 -1.993670
      ESP Fit Center  223 is at   2.862634 -0.145928 -2.428486
      ESP Fit Center  224 is at   2.471256 -0.308042 -2.428486
      ESP Fit Center  225 is at   2.135172 -0.565928 -2.428486
      ESP Fit Center  226 is at   1.877286 -0.902012 -2.428486
      ESP Fit Center  227 is at   1.715172 -1.293390 -2.428486
      ESP Fit Center  228 is at   1.659878 -1.713390 -2.428486
      ESP Fit Center  229 is at   1.715172 -2.133390 -2.428486
      ESP Fit Center  230 is at   1.877286 -2.524767 -2.428486
      ESP Fit Center  231 is at   2.135172 -2.860851 -2.428486
      ESP Fit Center  232 is at   2.471256 -3.118737 -2.428486
      ESP Fit Center  233 is at   2.862634 -3.280851 -2.428486
      ESP Fit Center  234 is at   3.282634 -3.336145 -2.428486
      ESP Fit Center  235 is at   3.702634 -3.280851 -2.428486
      ESP Fit Center  236 is at   3.391360 -0.262535 -2.833670
      ESP Fit Center  237 is at   2.958883 -0.294945 -2.833670
      ESP Fit Center  238 is at   2.555172 -0.453390 -2.833670
      ESP Fit Center  239 is at   2.216100 -0.723791 -2.833670
      ESP Fit Center  240 is at   1.971794 -1.082122 -2.833670
      ESP Fit Center  241 is at   1.843961 -1.496545 -2.833670
      ESP Fit Center  242 is at   1.843961 -1.930235 -2.833670
      ESP Fit Center  243 is at   1.971794 -2.344657 -2.833670
      ESP Fit Center  244 is at   2.216100 -2.702988 -2.833670
      ESP Fit Center  245 is at   2.555172 -2.973390 -2.833670
      ESP Fit Center  246 is at   2.958883 -3.131834 -2.833670
      ESP Fit Center  247 is at   3.391360 -3.164244 -2.833670
      ESP Fit Center  248 is at   3.814177 -3.067739 -2.833670
      ESP Fit Center  249 is at   4.189763 -2.850894 -2.833670
      ESP Fit Center  250 is at   4.470573 -1.713390 -3.181609
      ESP Fit Center  251 is at   4.160532 -0.913080 -3.181609
      ESP Fit Center  252 is at   3.812144 -0.649990 -3.181609
      ESP Fit Center  253 is at   3.392243 -0.530518 -3.181609
      ESP Fit Center  254 is at   2.957539 -0.570799 -3.181609
      ESP Fit Center  255 is at   2.566740 -0.765393 -3.181609
      ESP Fit Center  256 is at   2.272627 -1.088020 -3.181609
      ESP Fit Center  257 is at   2.114921 -1.495106 -3.181609
      ESP Fit Center  258 is at   2.114921 -1.931673 -3.181609
      ESP Fit Center  259 is at   2.272627 -2.338759 -3.181609
      ESP Fit Center  260 is at   2.566740 -2.661386 -3.181609
      ESP Fit Center  261 is at   2.957539 -2.855980 -3.181609
      ESP Fit Center  262 is at   3.392243 -2.896261 -3.181609
      ESP Fit Center  263 is at   3.812144 -2.776789 -3.181609
      ESP Fit Center  264 is at   4.160532 -2.513699 -3.181609
      ESP Fit Center  265 is at   4.390354 -2.142523 -3.181609
      ESP Fit Center  266 is at   4.122634 -1.713390 -3.448592
      ESP Fit Center  267 is at   4.010095 -1.293390 -3.448592
      ESP Fit Center  268 is at   3.702634 -0.985928 -3.448592
      ESP Fit Center  269 is at   3.282634 -0.873390 -3.448592
      ESP Fit Center  270 is at   2.862634 -0.985928 -3.448592
      ESP Fit Center  271 is at   2.555172 -1.293390 -3.448592
      ESP Fit Center  272 is at   2.442634 -1.713390 -3.448592
      ESP Fit Center  273 is at   2.555172 -2.133390 -3.448592
      ESP Fit Center  274 is at   2.862634 -2.440851 -3.448592
      ESP Fit Center  275 is at   3.282634 -2.553390 -3.448592
      ESP Fit Center  276 is at   3.702634 -2.440851 -3.448592
      ESP Fit Center  277 is at   4.010095 -2.133390 -3.448592
      ESP Fit Center  278 is at   3.717450 -1.713390 -3.616425
      ESP Fit Center  279 is at   3.500042 -1.336828 -3.616425
      ESP Fit Center  280 is at   3.065226 -1.336828 -3.616425
      ESP Fit Center  281 is at   2.847818 -1.713390 -3.616425
      ESP Fit Center  282 is at   3.065226 -2.089951 -3.616425
      ESP Fit Center  283 is at   3.500042 -2.089951 -3.616425
      ESP Fit Center  284 is at   3.282634 -1.713390 -3.673670
      ESP Fit Center  285 is at   3.613578 -0.595436  1.913401
      ESP Fit Center  286 is at   4.007524 -0.595436  1.793899
      ESP Fit Center  287 is at   3.605706 -1.291405  1.793899
      ESP Fit Center  288 is at   3.899857 -0.997254  1.793899
      ESP Fit Center  289 is at   3.723930 -1.639821  1.599838
      ESP Fit Center  290 is at   4.066088 -1.381435  1.599838
      ESP Fit Center  291 is at   4.291801 -1.016896  1.599838
      ESP Fit Center  292 is at   3.820748 -1.946171  1.338676
      ESP Fit Center  293 is at   4.176307 -1.717667  1.338676
      ESP Fit Center  294 is at   4.453086 -1.398247  1.338676
      ESP Fit Center  295 is at   4.628663 -1.013788  1.338676
      ESP Fit Center  296 is at   3.823059 -2.228055  1.020449
      ESP Fit Center  297 is at   4.195778 -2.032437  1.020449
      ESP Fit Center  298 is at   4.510853 -1.753306  1.020449
      ESP Fit Center  299 is at   4.749971 -1.406883  1.020449
      ESP Fit Center  300 is at   4.899236 -1.013302  1.020449
      ESP Fit Center  301 is at   5.098676 -1.012511  0.657387
      ESP Fit Center  302 is at   1.657806  0.216010 -1.312946
      ESP Fit Center  303 is at   2.587029  0.755298 -1.631172
      ESP Fit Center  304 is at   2.231470  0.526794 -1.631172
      ESP Fit Center  305 is at   1.954691  0.207374 -1.631172
      ESP Fit Center  306 is at   1.779114 -0.177085 -1.631172
      ESP Fit Center  307 is at   3.723930  0.448948 -1.892334
      ESP Fit Center  308 is at   3.311538  0.566284 -1.892334
      ESP Fit Center  309 is at   2.884606  0.526723 -1.892334
      ESP Fit Center  310 is at   2.500796  0.335608 -1.892334
      ESP Fit Center  311 is at   2.211942  0.018751 -1.892334
      ESP Fit Center  312 is at   2.057056 -0.381056 -1.892334
      ESP Fit Center  313 is at   3.203888  0.208199 -2.086395
      ESP Fit Center  314 is at   2.802071  0.100532 -2.086395
      ESP Fit Center  315 is at   2.507920 -0.193619 -2.086395
      ESP Fit Center  316 is at   3.687915  0.499006  2.105074
      ESP Fit Center  317 is at   4.095422  0.499006  2.062244
      ESP Fit Center  318 is at   3.891668  0.851917  2.062244
      ESP Fit Center  319 is at   3.484162  0.851917  2.062244
      ESP Fit Center  320 is at   3.484162  0.146095  2.062244
      ESP Fit Center  321 is at   3.891668  0.146095  2.062244
      ESP Fit Center  322 is at   4.485119  0.499006  1.935623
      ESP Fit Center  323 is at   4.378314  0.897608  1.935623
      ESP Fit Center  324 is at   4.086517  1.189405  1.935623
      ESP Fit Center  325 is at   3.687915  1.296210  1.935623
      ESP Fit Center  326 is at   3.289313  1.189405  1.935623
      ESP Fit Center  327 is at   3.289313 -0.191393  1.935623
      ESP Fit Center  328 is at   3.687915 -0.298198  1.935623
      ESP Fit Center  329 is at   4.086517 -0.191393  1.935623
      ESP Fit Center  330 is at   4.378314  0.100404  1.935623
      ESP Fit Center  331 is at   4.839974  0.499006  1.730748
      ESP Fit Center  332 is at   4.762178  0.915178  1.730748
      ESP Fit Center  333 is at   4.539297  1.275143  1.730748
      ESP Fit Center  334 is at   4.201432  1.530287  1.730748
      ESP Fit Center  335 is at   3.794214  1.646151  1.730748
      ESP Fit Center  336 is at   3.372639  1.607086  1.730748
      ESP Fit Center  337 is at   4.201432 -0.532275  1.730748
      ESP Fit Center  338 is at   4.539297 -0.277131  1.730748
      ESP Fit Center  339 is at   4.762178  0.082834  1.730748
      ESP Fit Center  340 is at   5.144479  0.499006  1.456570
      ESP Fit Center  341 is at   5.085478  0.909368  1.456570
      ESP Fit Center  342 is at   4.913254  1.286484  1.456570
      ESP Fit Center  343 is at   4.641761  1.599804  1.456570
      ESP Fit Center  344 is at   4.292993  1.823943  1.456570
      ESP Fit Center  345 is at   3.895206  1.940744  1.456570
      ESP Fit Center  346 is at   3.480624  1.940744  1.456570
      ESP Fit Center  347 is at   3.082836  1.823943  1.456570
      ESP Fit Center  348 is at   4.641761 -0.601791  1.456570
      ESP Fit Center  349 is at   4.913254 -0.288472  1.456570
      ESP Fit Center  350 is at   5.085478  0.088645  1.456570
      ESP Fit Center  351 is at   5.385325  0.499006  1.125074
      ESP Fit Center  352 is at   5.331998  0.921135  1.125074
      ESP Fit Center  353 is at   5.175366  1.316740  1.125074
      ESP Fit Center  354 is at   4.925273  1.660963  1.125074
      ESP Fit Center  355 is at   4.597433  1.932177  1.125074
      ESP Fit Center  356 is at   4.212443  2.113339  1.125074
      ESP Fit Center  357 is at   3.794496  2.193066  1.125074
      ESP Fit Center  358 is at   3.369852  2.166350  1.125074
      ESP Fit Center  359 is at   2.965193  2.034868  1.125074
      ESP Fit Center  360 is at   4.925273 -0.662951  1.125074
      ESP Fit Center  361 is at   5.175366 -0.318727  1.125074
      ESP Fit Center  362 is at   5.331998  0.076877  1.125074
      ESP Fit Center  363 is at   5.551986  0.499006  0.750748
      ESP Fit Center  364 is at   5.505250  0.913801  0.750748
      ESP Fit Center  365 is at   5.367385  1.307796  0.750748
      ESP Fit Center  366 is at   5.145304  1.661235  0.750748
      ESP Fit Center  367 is at   4.850144  1.956395  0.750748
      ESP Fit Center  368 is at   4.496705  2.178476  0.750748
      ESP Fit Center  369 is at   4.102710  2.316341  0.750748
      ESP Fit Center  370 is at   3.687915  2.363077  0.750748
      ESP Fit Center  371 is at   3.273120  2.316341  0.750748
      ESP Fit Center  372 is at   5.145304 -0.663223  0.750748
      ESP Fit Center  373 is at   5.367385 -0.309784  0.750748
      ESP Fit Center  374 is at   5.505250  0.084211  0.750748
      ESP Fit Center  375 is at   5.637178  0.499006  0.349950
      ESP Fit Center  376 is at   5.591605  0.918040  0.349950
      ESP Fit Center  377 is at   5.457018  1.317480  0.349950
      ESP Fit Center  378 is at   5.239710  1.678650  0.349950
      ESP Fit Center  379 is at   4.949841  1.984660  0.349950
      ESP Fit Center  380 is at   4.600966  2.221203  0.349950
      ESP Fit Center  381 is at   4.209398  2.377218  0.349950
      ESP Fit Center  382 is at   3.793446  2.445410  0.349950
      ESP Fit Center  383 is at   3.372559  2.422590  0.349950
      ESP Fit Center  384 is at   5.457018 -0.319468  0.349950
      ESP Fit Center  385 is at   5.591605  0.079972  0.349950
      ESP Fit Center  386 is at   5.637178  0.499006 -0.059801
      ESP Fit Center  387 is at   5.591605  0.918040 -0.059801
      ESP Fit Center  388 is at   5.457018  1.317480 -0.059801
      ESP Fit Center  389 is at   5.239710  1.678650 -0.059801
      ESP Fit Center  390 is at   4.949841  1.984660 -0.059801
      ESP Fit Center  391 is at   4.600966  2.221203 -0.059801
      ESP Fit Center  392 is at   4.209398  2.377218 -0.059801
      ESP Fit Center  393 is at   3.793446  2.445410 -0.059801
      ESP Fit Center  394 is at   3.372559  2.422590 -0.059801
      ESP Fit Center  395 is at   5.457018 -0.319468 -0.059801
      ESP Fit Center  396 is at   5.591605  0.079972 -0.059801
      ESP Fit Center  397 is at   5.551986  0.499006 -0.460599
      ESP Fit Center  398 is at   5.505250  0.913801 -0.460599
      ESP Fit Center  399 is at   5.367385  1.307796 -0.460599
      ESP Fit Center  400 is at   5.145304  1.661235 -0.460599
      ESP Fit Center  401 is at   4.850144  1.956395 -0.460599
      ESP Fit Center  402 is at   4.496705  2.178476 -0.460599
      ESP Fit Center  403 is at   4.102710  2.316341 -0.460599
      ESP Fit Center  404 is at   3.687915  2.363077 -0.460599
      ESP Fit Center  405 is at   5.385325  0.499006 -0.834926
      ESP Fit Center  406 is at   5.331998  0.921135 -0.834926
      ESP Fit Center  407 is at   5.175366  1.316740 -0.834926
      ESP Fit Center  408 is at   4.925273  1.660963 -0.834926
      ESP Fit Center  409 is at   4.597433  1.932177 -0.834926
      ESP Fit Center  410 is at   4.212443  2.113339 -0.834926
      ESP Fit Center  411 is at   3.794496  2.193066 -0.834926
      ESP Fit Center  412 is at   3.369852  2.166350 -0.834926
      ESP Fit Center  413 is at   5.085478  0.909368 -1.166422
      ESP Fit Center  414 is at   4.913254  1.286484 -1.166422
      ESP Fit Center  415 is at   4.641761  1.599804 -1.166422
      ESP Fit Center  416 is at   4.292993  1.823943 -1.166422
      ESP Fit Center  417 is at   3.895206  1.940744 -1.166422
[...]
 6887 Fit       0.011291
 6888 Fit       0.012570
 6889 Fit       0.005962
 6890 Fit       0.006730
 6891 Fit       0.007512
 6892 Fit       0.008299
 6893 Fit       0.009098
 6894 Fit       0.009935
 6895 Fit       0.010863
 6896 Fit       0.011975
 6897 Fit       0.013437
 6898 Fit       0.005879
 6899 Fit       0.006602
 6900 Fit       0.007380
 6901 Fit       0.008186
 6902 Fit       0.009012
 6903 Fit       0.009872
 6904 Fit       0.010806
 6905 Fit       0.011895
 6906 Fit       0.013284
 6907 Fit       0.006620
 6908 Fit       0.007344
 6909 Fit       0.008139
 6910 Fit       0.008977
 6911 Fit       0.009856
 6912 Fit       0.010805
 6913 Fit       0.011896
 6914 Fit       0.013263
 6915 Fit       0.015162
 6916 Fit       0.006763
 6917 Fit       0.007331
 6918 Fit       0.008044
 6919 Fit       0.008841
 6920 Fit       0.009696
 6921 Fit       0.010618
 6922 Fit       0.011655
 6923 Fit       0.012906
 6924 Fit       0.014558
 6925 Fit       0.007538
 6926 Fit       0.008173
 6927 Fit       0.008951
 6928 Fit       0.009820
 6929 Fit       0.010777
 6930 Fit       0.011864
 6931 Fit       0.013182
 6932 Fit       0.014899
 6933 Fit       0.007786
 6934 Fit       0.008276
 6935 Fit       0.008984
 6936 Fit       0.009826
 6937 Fit       0.010772
 6938 Fit       0.011840
 6939 Fit       0.013080
 6940 Fit       0.008438
 6941 Fit       0.009083
 6942 Fit       0.009914
 6943 Fit       0.010855
 6944 Fit       0.011859
 6945 Fit       0.012812
 6946 Fit       0.008597
 6947 Fit       0.009221
 6948 Fit       0.010076
 6949 Fit       0.010926
 6950 Fit       0.011368
 6951 Fit       0.009240
 6952 Fit       0.009959
 6953 Fit       0.009714
 6954 Fit      -0.008285
 6955 Fit      -0.008710
 6956 Fit      -0.008995
 6957 Fit      -0.008886
 6958 Fit      -0.009603
 6959 Fit      -0.009052
 6960 Fit      -0.008803
 6961 Fit       0.001102
 6962 Fit       0.000818
 6963 Fit       0.002175
 6964 Fit       0.002368
 6965 Fit      -0.000773
 6966 Fit      -0.000485
 6967 Fit      -0.000016
 6968 Fit      -0.001817
 6969 Fit      -0.003274
 6970 Fit       0.001978
 6971 Fit      -0.000576
 6972 Fit      -0.001035
 6973 Fit      -0.003215
 6974 Fit      -0.001232
 6975 Fit      -0.003411
 6976 Fit      -0.005284
 6977 Fit      -0.006637
 6978 Fit       0.000289
 6979 Fit      -0.001921
 6980 Fit      -0.004120
 6981 Fit      -0.006134
 6982 Fit      -0.007762
 6983 Fit       0.000509
 6984 Fit      -0.001520
 6985 Fit       0.004200
 6986 Fit       0.005938
 6987 Fit       0.008954
 6988 Fit       0.009975
 6989 Fit       0.009451
 6990 Fit       0.006777
 6991 Fit       0.006246
 6992 Fit       0.005780
 6993 Fit       0.006936
 6994 Fit       0.004827
 6995 Fit       0.003802
 6996 Fit       0.003140
 6997 Fit       0.002376
 6998 Fit       0.002869
 6999 Fit       0.003326
 7000 Fit       0.003415
 7001 Fit       0.003546
 7002 Fit       0.002985
 7003 Fit       0.001097
 7004 Fit       0.001799
 7005 Fit       0.002698
 7006 Fit       0.003307
 7007 Fit       0.003505
 7008 Fit       0.003382
 7009 Fit       0.003232
 7010 Fit       0.003474
 7011 Fit       0.004110
 7012 Fit       0.001433
 7013 Fit      -0.000692
 7014 Fit       0.000371
 7015 Fit       0.001586
 7016 Fit       0.002596
 7017 Fit       0.003285
 7018 Fit       0.003640
 7019 Fit       0.003677
 7020 Fit       0.003433
 7021 Fit       0.003005
 7022 Fit       0.002619
 7023 Fit       0.002648
 7024 Fit       0.003420
 7025 Fit      -0.000888
 7026 Fit      -0.002928
 7027 Fit      -0.001298
 7028 Fit       0.000324
 7029 Fit       0.001674
 7030 Fit       0.002690
 7031 Fit       0.003385
 7032 Fit       0.003789
 7033 Fit       0.003924
 7034 Fit       0.003792
 7035 Fit       0.003389
 7036 Fit       0.002736
 7037 Fit       0.001955
 7038 Fit       0.001338
 7039 Fit      -0.003908
 7040 Fit      -0.005441
 7041 Fit      -0.003068
 7042 Fit      -0.000961
 7043 Fit       0.000732
 7044 Fit       0.002022
 7045 Fit       0.002964
 7046 Fit       0.003614
 7047 Fit       0.004014
 7048 Fit       0.004184
 7049 Fit       0.004119
 7050 Fit       0.003783
 7051 Fit       0.003125
 7052 Fit       0.002113
 7053 Fit      -0.007531
 7054 Fit      -0.007907
 7055 Fit      -0.004796
 7056 Fit      -0.002244
 7057 Fit      -0.000252
 7058 Fit       0.001268
 7059 Fit       0.002411
 7060 Fit       0.003258
 7061 Fit       0.003867
 7062 Fit       0.004278
 7063 Fit       0.004506
 7064 Fit       0.004542
 7065 Fit       0.004346
 7066 Fit      -0.011272
 7067 Fit      -0.009843
 7068 Fit      -0.005990
 7069 Fit      -0.003028
 7070 Fit      -0.000791
 7071 Fit       0.000893
 7072 Fit       0.002165
 7073 Fit       0.003130
 7074 Fit       0.003865
 7075 Fit       0.004420
 7076 Fit       0.004821
 7077 Fit      -0.014560
 7078 Fit      -0.010677
 7079 Fit      -0.006507
 7080 Fit      -0.003399
 7081 Fit      -0.001081
 7082 Fit       0.000666
 7083 Fit       0.002005
 7084 Fit       0.003054
 7085 Fit       0.003897
 7086 Fit       0.003152
 7087 Fit       0.001872
 7088 Fit       0.004492
 7089 Fit       0.003921
 7090 Fit       0.002894
 7091 Fit       0.001222
 7092 Fit       0.005142
 7093 Fit       0.005272
 7094 Fit       0.005252
 7095 Fit       0.004991
 7096 Fit       0.004335
 7097 Fit       0.003049
 7098 Fit       0.004343
 7099 Fit       0.004908
 7100 Fit       0.005402
 7101 Fit       0.005823
 7102 Fit       0.006148
 7103 Fit       0.006330
 7104 Fit       0.006290
 7105 Fit       0.005879
 7106 Fit      -0.013095
 7107 Fit      -0.008216
 7108 Fit      -0.004707
 7109 Fit      -0.002136
 7110 Fit      -0.000214
 7111 Fit       0.001255
 7112 Fit       0.002410
 7113 Fit       0.003355
 7114 Fit       0.004174
 7115 Fit       0.004924
 7116 Fit       0.005637
 7117 Fit       0.007999
 7118 Fit      -0.011543
 7119 Fit      -0.007290
 7120 Fit      -0.004204
 7121 Fit      -0.001912
 7122 Fit      -0.000160
 7123 Fit       0.001225
 7124 Fit       0.002364
 7125 Fit       0.003352
 7126 Fit       0.004264
 7127 Fit       0.005154
 7128 Fit      -0.002699
 7129 Fit      -0.000879
 7130 Fit       0.000569
 7131 Fit       0.001772
 7132 Fit       0.002830
 7133 Fit       0.003820
 7134 Fit       0.004810
 7135 Fit       0.000504
 7136 Fit       0.001557
 7137 Fit       0.002518
 7138 Fit       0.003450
 7139 Fit       0.004412
 7140 Fit       0.005458
 7141 Fit       0.002694
 7142 Fit       0.003382
 7143 Fit       0.004160
 7144 Fit       0.005063
 7145 Fit       0.003940
 7146 Fit       0.004418
 7147 Fit       0.005107
 7148 Fit       0.005070
 7149 Fit       0.005436
 7150 Fit       0.006128
 7151 Fit       0.006011
 7152 Fit       0.006344
 7153 Fit       0.006795
 7154 Fit       0.007223
 7155 Fit       0.007450
 7156 Fit       0.007798
 7157 Fit       0.008166
 7158 Fit       0.008116
 7159 Fit       0.008180
 7160 Fit       0.008702
 7161 Fit       0.009542
 7162 Fit       0.009611
 7163 Fit       0.008359
 7164 Fit       0.008205
 7165 Fit       0.008465
 7166 Fit       0.008599
 7167 Fit       0.007960
 7168 Fit       0.007980
 7169 Fit       0.008390
 7170 Fit       0.008104
 7171 Fit       0.007921
 7172 Fit       0.007185
 7173 Fit       0.007211
 7174 Fit       0.008261
 7175 Fit       0.007806
 7176 Fit      -0.001051
 7177 Fit       0.000851
 7178 Fit      -0.001246
 7179 Fit      -0.002974
 7180 Fit      -0.002716
 7181 Fit      -0.000741
 7182 Fit       0.001089
 7183 Fit      -0.003439
 7184 Fit      -0.004692
 7185 Fit      -0.004944
 7186 Fit      -0.004256
 7187 Fit      -0.002655
 7188 Fit      -0.000388
 7189 Fit       0.001888
 7190 Fit       0.003461
 7191 Fit      -0.005239
 7192 Fit      -0.006214
 7193 Fit      -0.006580
 7194 Fit      -0.006438
 7195 Fit      -0.005785
 7196 Fit      -0.004505
 7197 Fit      -0.002531
 7198 Fit      -0.000065
 7199 Fit       0.002448
 7200 Fit       0.004570
 7201 Fit       0.006075
 7202 Fit      -0.007079
 7203 Fit      -0.007733
 7204 Fit      -0.008004
 7205 Fit      -0.007981
 7206 Fit      -0.000851
 7207 Fit      -0.008431
 7208 Fit      -0.008951
 7209 Fit       0.016554
 7210 Fit       0.005870
 7211 Fit       0.009699
 7212 Fit       0.013709
 7213 Fit       0.018582
 7214 Fit       0.005300
 7215 Fit       0.009410
 7216 Fit       0.014016
 7217 Fit       0.004861
 7218 Fit       0.009114
 7219 Fit       0.014071
 7220 Fit       0.006702
 7221 Fit       0.011602
 7222 Fit       0.005014
 7223 Fit       0.009474
 7224 Fit       0.014013
 7225 Fit       0.008835
 7226 Fit       0.006222
 7227 Fit       0.009190
 7228 Fit       0.003749
 7229 Fit       0.002991
 7230 Fit       0.000230
 7231 Fit      -0.000290
 7232 Fit       0.001047
 7233 Fit      -0.001024
 7234 Fit      -0.002342
 7235 Fit      -0.002366
 7236 Fit       0.002417
 7237 Fit       0.000039
 7238 Fit      -0.002159
 7239 Fit      -0.003783
 7240 Fit      -0.004631
 7241 Fit      -0.001650
 7242 Fit      -0.003891
 7243 Fit      -0.005520
 7244 Fit      -0.006528
 7245 Fit      -0.007863
 7246 Fit       0.006083
 7247 Fit       0.003903
 7248 Fit       0.005952
 7249 Fit       0.001566
 7250 Fit       0.003851
 7251 Fit       0.006011
 7252 Fit       0.007734
 7253 Fit       0.001310
 7254 Fit       0.003659
 7255 Fit       0.005823
 7256 Fit       0.007665
 7257 Fit       0.009236
 7258 Fit       0.002438
 7259 Fit       0.004861
 7260 Fit       0.006934
 7261 Fit       0.008675
 7262 Fit       0.010207
 7263 Fit       0.002691
 7264 Fit       0.005259
 7265 Fit       0.007387
 7266 Fit       0.009151
 7267 Fit       0.010678
 7268 Fit       0.002901
 7269 Fit       0.005545
 7270 Fit       0.007698
 7271 Fit       0.009472
 7272 Fit       0.010982
 7273 Fit       0.012379
 7274 Fit       0.004166
 7275 Fit       0.006746
 7276 Fit       0.008827
 7277 Fit       0.010547
 7278 Fit       0.012027
 7279 Fit       0.013410
 7280 Fit       0.005414
 7281 Fit       0.007851
 7282 Fit       0.009836
 7283 Fit       0.011506
 7284 Fit       0.012968
 7285 Fit       0.014325
 7286 Fit       0.005824
 7287 Fit       0.008296
 7288 Fit       0.010331
 7289 Fit       0.012075
 7290 Fit       0.013628
 7291 Fit       0.015055
 7292 Fit       0.007463
 7293 Fit       0.009841
 7294 Fit       0.011884
 7295 Fit       0.013729
 7296 Fit       0.015462
 7297 Fit       0.017081
 7298 Fit       0.005550
 7299 Fit       0.008500
 7300 Fit       0.010995
 7301 Fit       0.013263
 7302 Fit       0.015475
 7303 Fit       0.017736
 7304 Fit       0.006693
 7305 Fit       0.009665
 7306 Fit       0.012357
 7307 Fit       0.015042
 7308 Fit       0.017989
 7309 Fit       0.006224
 7310 Fit       0.009631
 7311 Fit       0.012851
 7312 Fit       0.016324
 7313 Fit      -0.008587
 7314 Fit      -0.004901
 7315 Fit      -0.005453
 7316 Fit      -0.002960
 7317 Fit      -0.000961
 7318 Fit      -0.001809
 7319 Fit      -0.000492
 7320 Fit       0.000742
 7321 Fit       0.001849
 7322 Fit       0.001607
 7323 Fit       0.002027
 7324 Fit       0.002634
 7325 Fit       0.003296
 7326 Fit       0.005173
 7327 Fit       0.004351
 7328 Fit       0.004181
 7329 Fit       0.004331
 7330 Fit       0.004656
 7331 Fit       0.007474
 7332 Fit       0.006387
 7333 Fit       0.005876
 7334 Fit       0.005718
 7335 Fit       0.005798
 7336 Fit       0.008954
 7337 Fit       0.007769
 7338 Fit       0.007093
 7339 Fit       0.006781
 7340 Fit       0.006753
 7341 Fit       0.010777
 7342 Fit       0.009850
 7343 Fit       0.008669
 7344 Fit       0.007930
 7345 Fit       0.007552
 7346 Fit       0.007486
 7347 Fit       0.011507
 7348 Fit       0.010293
 7349 Fit       0.009148
 7350 Fit       0.008418
 7351 Fit       0.008067
 7352 Fit       0.013383
 7353 Fit       0.011800
 7354 Fit       0.010356
 7355 Fit       0.009258
 7356 Fit       0.008615
 7357 Fit       0.010294
 7358 Fit       0.012066
 7359 Fit       0.012507
 7360 Fit       0.011667
 7361 Fit       0.010097
 7362 Fit       0.009117
 7363 Fit       0.009962
 7364 Fit       0.010844
 7365 Fit       0.009569
 7366 Fit      -0.003333
 7367 Fit      -0.006794
 7368 Fit      -0.004128
 7369 Fit      -0.001371
 7370 Fit      -0.000757
 7371 Fit      -0.002285
 7372 Fit      -0.005546
 7373 Fit      -0.011413
 7374 Fit      -0.008652
 7375 Fit      -0.004737
 7376 Fit      -0.001451
 7377 Fit       0.000413
 7378 Fit       0.001055
 7379 Fit      -0.008065
 7380 Fit      -0.011205
 7381 Fit      -0.017629
 7382 Fit      -0.014333
 7383 Fit      -0.009742
 7384 Fit      -0.005190
 7385 Fit      -0.001491
 7386 Fit       0.000956
 7387 Fit       0.002115
 7388 Fit       0.002353
 7389 Fit       0.002255
 7390 Fit      -0.015610
 7391 Fit      -0.018198
 7392 Fit      -0.021592
 7393 Fit      -0.015709
 7394 Fit      -0.009841
 7395 Fit      -0.004700
 7396 Fit      -0.000608
 7397 Fit       0.002212
 7398 Fit       0.003632
 7399 Fit       0.003837
 7400 Fit       0.003343
 7401 Fit      -0.015275
 7402 Fit      -0.008557
 7403 Fit      -0.002959
 7404 Fit      -0.013716
 7405 Fit      -0.006630
 7406 Fit      -0.000909
 7407 Fit      -0.003461
 7408 Fit       0.000174
 7409 Fit       0.000793
 7410 Fit       0.000262
 7411 Fit      -0.001985
 7412 Fit       0.001186
 7413 Fit       0.001470
 7414 Fit       0.001763
 7415 Fit       0.002095
 7416 Fit      -0.005999
 7417 Fit       0.002058
 7418 Fit       0.001775
 7419 Fit       0.001652
 7420 Fit       0.002034
 7421 Fit       0.002827
 7422 Fit      -0.011157
 7423 Fit       0.002435
 7424 Fit       0.001507
 7425 Fit       0.000970
 7426 Fit       0.001164
 7427 Fit       0.002134
 7428 Fit      -0.013937
 7429 Fit      -0.018027
 7430 Fit       0.002668
 7431 Fit       0.000297
 7432 Fit      -0.002011
 7433 Fit      -0.001013
 7434 Fit       0.000979
 7435 Fit       0.001953
 7436 Fit       0.001675
 7437 Fit      -0.000225
 7438 Fit      -0.005173
 7439 Fit       0.002506
 7440 Fit       0.003086
 7441 Fit       0.003448
 7442 Fit       0.003093
 7443 Fit       0.001732
 7444 Fit      -0.000580
 7445 Fit      -0.003314
 7446 Fit      -0.009508
 7447 Fit       0.003771
 7448 Fit       0.004498
 7449 Fit       0.004853
 7450 Fit       0.004559
 7451 Fit       0.003532
 7452 Fit       0.001761
 7453 Fit      -0.000753
 7454 Fit      -0.003891
 7455 Fit      -0.007168
 7456 Fit       0.003493
 7457 Fit       0.004667
 7458 Fit       0.005764
 7459 Fit       0.006352
 7460 Fit       0.006278
 7461 Fit       0.005571
 7462 Fit       0.004278
 7463 Fit       0.002379
 7464 Fit      -0.000209
 7465 Fit      -0.003571
 7466 Fit      -0.007662
 7467 Fit      -0.012030
 7468 Fit       0.007953
 7469 Fit       0.008232
 7470 Fit       0.007811
 7471 Fit       0.006871
 7472 Fit       0.005486
 7473 Fit       0.003612
 7474 Fit       0.001121
 7475 Fit      -0.002183
 7476 Fit      -0.006522
 7477 Fit      -0.012005
 7478 Fit       0.010312
 7479 Fit       0.009410
 7480 Fit       0.008212
 7481 Fit       0.006750
 7482 Fit       0.004947
 7483 Fit       0.002652
 7484 Fit      -0.000359
 7485 Fit      -0.004409
 7486 Fit      -0.009918
 7487 Fit       0.010469
 7488 Fit       0.008911
 7489 Fit       0.007222
 7490 Fit       0.005239
 7491 Fit       0.002747
 7492 Fit      -0.000567
 7493 Fit      -0.005196
 7494 Fit       0.011210
 7495 Fit       0.009484
 7496 Fit       0.007715
 7497 Fit       0.005694
 7498 Fit       0.003177
 7499 Fit      -0.000198
 7500 Fit       0.012301
 7501 Fit       0.010512
 7502 Fit       0.008783
 7503 Fit       0.006896
 7504 Fit       0.004633
 7505 Fit       0.001675
 7506 Fit       0.014502
 7507 Fit       0.012499
 7508 Fit       0.010790
 7509 Fit       0.009114
 7510 Fit       0.007310
 7511 Fit       0.015152
 7512 Fit       0.013313
 7513 Fit       0.011726
 7514 Fit       0.005094
 7515 Fit       0.009631
 7516 Fit       0.008059
 7517 Fit       0.013527
 7518 Fit       0.011916
 7519 Fit       0.010821
 7520 Fit       0.010208
 7521 Fit       0.016406
 7522 Fit       0.014774
 7523 Fit       0.013631
 7524 Fit       0.013026
 7525 Fit       0.013027
 7526 Fit       0.018886
 7527 Fit       0.017552
 7528 Fit       0.016422
 7529 Fit       0.015656
 7530 Fit       0.015408
 7531 Fit       0.019943
 7532 Fit       0.019224
 7533 Fit       0.018481
 7534 Fit       0.017970
 7535 Fit       0.017912
 7536 Fit       0.020702
 7537 Fit       0.020426
 7538 Fit       0.015128
 7539 Fit       0.014555
 7540 Fit       0.014518
 7541 Fit       0.018028
 7542 Fit       0.020276
 7543 Fit       0.020311
 7544 Fit       0.020290
 7545 Fit       0.020976
 7546 Fit       0.021335
 7547 Fit       0.021645
 7548 Fit       0.017779
 7549 Fit       0.019849
 7550 Fit       0.021183
 7551 Fit       0.022021
 7552 Fit       0.022608
 7553 Fit       0.023162
 7554 Fit       0.017054
 7555 Fit       0.019356
 7556 Fit       0.021088
 7557 Fit       0.022319
 7558 Fit       0.023195
 7559 Fit       0.023881
 7560 Fit       0.024508
 7561 Fit       0.010957
 7562 Fit       0.011647
 7563 Fit       0.013082
 7564 Fit       0.015075
 7565 Fit       0.017335
 7566 Fit       0.019507
 7567 Fit       0.021345
 7568 Fit       0.022773
 7569 Fit       0.023846
 7570 Fit       0.024678
 7571 Fit       0.025373
 7572 Fit       0.016128
 7573 Fit       0.015309
 7574 Fit       0.015004
 7575 Fit       0.015393
 7576 Fit       0.016463
 7577 Fit       0.018038
 7578 Fit       0.019847
 7579 Fit       0.021603
 7580 Fit       0.023113
 7581 Fit       0.024327
 7582 Fit       0.025302
 7583 Fit       0.026137
 7584 Fit       0.019594
 7585 Fit       0.018591
 7586 Fit       0.018284
 7587 Fit       0.018699
 7588 Fit       0.019763
 7589 Fit       0.021236
 7590 Fit       0.022806
 7591 Fit       0.024237
 7592 Fit       0.025457
 7593 Fit       0.021301
 7594 Fit       0.021098
 7595 Fit       0.021884
 7596 Fit       0.023279
 7597 Fit       0.024817
 7598 Fit       0.026275
 7599 Fit       0.023666
 7600 Fit       0.023756
 7601 Fit       0.025288
 -----------------------------------------------------------------
 Leave Link  602 at Wed Nov 29 20:27:24 2017, MaxMem=  2147483648 cpu:         1.3

 Test job not archived.
 1\1\GINC-LAC-080\FOpt\RHF\6-31G(d)\C10H12Cl1N1O1\SONGLIN3\29-Nov-2017\
 0\\#HF/6-31G* SCF=tight Test Pop=MK iop(6/33=2) iop(6/42=6) opt\\remar
 k line goes here\\0,1\H,18.4979057127,-12.776745393,20.2944447844\C,18
 .0666716335,-11.9504807498,20.8417074334\H,18.7801384038,-11.132290178
 1,20.8356302092\H,17.8908245693,-12.2455000433,21.8697010721\C,16.8039
 996536,-11.5039647324,20.1353320375\O,16.6781476825,-11.5883523835,18.
 9445908571\H,10.7441482096,-10.2693273496,24.1091353346\H,11.202512601
 8,-12.348561164,22.8937431114\C,11.516265699,-10.301152256,23.36401148
 86\C,11.7847978897,-11.4721611935,22.6713136496\Cl,11.9422338308,-7.68
 60465729,23.9278428451\H,12.3873598471,-13.6267493985,21.3563014026\C,
 12.2561360926,-9.1760809051,23.0764551407\C,12.775050701,-11.542265093
 9,21.7030443619\H,12.7978675273,-12.7366447055,19.9056600852\C,13.0184
 101314,-12.838710174,20.9639119823\C,13.2500560906,-9.2144827988,22.11
 40725723\C,13.5192546694,-10.3874002668,21.4257136141\H,13.8116339653,
 -8.3238539454,21.8999548036\H,14.050022482,-13.1591325783,21.049203839
 4\H,14.3563501776,-10.9431205629,19.5160100702\C,14.6322959891,-10.386
 8668525,20.3983776396\H,14.8321970475,-9.3689175054,20.0793788768\N,15
 .83636449,-10.9955806291,20.937417899\H,16.0433549028,-10.8356125677,2
 1.8970448891\\Version=ES64L-G09RevD.01\State=1-A\HF=-974.4896902\RMSD=
 5.397e-09\RMSF=5.389e-06\Dipole=0.1233127,-0.5209592,0.9914568\Quadrup
 ole=5.9825519,2.2229422,-8.2054941,4.7986166,6.8882317,-5.5690381\PG=C
 01 [X(C10H12Cl1N1O1)]\\@


 WERE I TO AWAIT PERFECTION, MY BOOK WOULD NEVER BE FINISHED.
                                    -- HISTORY OF CHINESE WRITING

                                       TAI T'UNG, 13TH CENTURY
 Job cpu time:       0 days  0 hours 18 minutes 27.7 seconds.
 File lengths (MBytes):  RWF=    134 Int=      0 D2E=      0 Chk=      5 Scr=      2
 Normal termination of Gaussian 09 at Wed Nov 29 20:27:25 2017.
