 Entering Gaussian System, Link 0=g09
 Initial command:
 /opt/software/Gaussian/g09/l1.exe "/mnt/ls15/scratch/users/songlin3/Gau-6464.inp" -scrdir="/mnt/ls15/scratch/users/songlin3/"
 Entering Link 1 = /opt/software/Gaussian/g09/l1.exe PID=      6465.
  
 Copyright (c) 1988,1990,1992,1993,1995,1998,2003,2009,2013,
            Gaussian, Inc.  All Rights Reserved.
  
 This is part of the Gaussian(R) 09 program.  It is based on
 the Gaussian(R) 03 system (copyright 2003, Gaussian, Inc.),
 the Gaussian(R) 98 system (copyright 1998, Gaussian, Inc.),
 the Gaussian(R) 94 system (copyright 1995, Gaussian, Inc.),
 the Gaussian 92(TM) system (copyright 1992, Gaussian, Inc.),
 the Gaussian 90(TM) system (copyright 1990, Gaussian, Inc.),
 the Gaussian 88(TM) system (copyright 1988, Gaussian, Inc.),
 the Gaussian 86(TM) system (copyright 1986, Carnegie Mellon
 University), and the Gaussian 82(TM) system (copyright 1983,
 Carnegie Mellon University). Gaussian is a federally registered
 trademark of Gaussian, Inc.
  
 This software contains proprietary and confidential information,
 including trade secrets, belonging to Gaussian, Inc.
  
 This software is provided under written license and may be
 used, copied, transmitted, or stored only in accord with that
 written license.
  
 The following legend is applicable only to US Government
 contracts under FAR:
  
                    RESTRICTED RIGHTS LEGEND
  
 Use, reproduction and disclosure by the US Government is
 subject to restrictions as set forth in subparagraphs (a)
 and (c) of the Commercial Computer Software - Restricted
 Rights clause in FAR 52.227-19.
  
 Gaussian, Inc.
 340 Quinnipiac St., Bldg. 40, Wallingford CT 06492
  
  
 ---------------------------------------------------------------
 Warning -- This program may not be used in any manner that
 competes with the business of Gaussian, Inc. or will provide
 assistance to any competitor of Gaussian, Inc.  The licensee
 of this program is prohibited from giving any competitor of
 Gaussian, Inc. access to this program.  By using this program,
 the user acknowledges that Gaussian, Inc. is engaged in the
 business of creating and licensing software in the field of
 computational chemistry and represents and warrants to the
 licensee that it is not a competitor of Gaussian, Inc. and that
 it will not use this program in any manner prohibited above.
 ---------------------------------------------------------------
  

 Cite this work as:
 Gaussian 09, Revision D.01,
 M. J. Frisch, G. W. Trucks, H. B. Schlegel, G. E. Scuseria, 
 M. A. Robb, J. R. Cheeseman, G. Scalmani, V. Barone, B. Mennucci, 
 G. A. Petersson, H. Nakatsuji, M. Caricato, X. Li, H. P. Hratchian, 
 A. F. Izmaylov, J. Bloino, G. Zheng, J. L. Sonnenberg, M. Hada, 
 M. Ehara, K. Toyota, R. Fukuda, J. Hasegawa, M. Ishida, T. Nakajima, 
 Y. Honda, O. Kitao, H. Nakai, T. Vreven, J. A. Montgomery, Jr., 
 J. E. Peralta, F. Ogliaro, M. Bearpark, J. J. Heyd, E. Brothers, 
 K. N. Kudin, V. N. Staroverov, T. Keith, R. Kobayashi, J. Normand, 
 K. Raghavachari, A. Rendell, J. C. Burant, S. S. Iyengar, J. Tomasi, 
 M. Cossi, N. Rega, J. M. Millam, M. Klene, J. E. Knox, J. B. Cross, 
 V. Bakken, C. Adamo, J. Jaramillo, R. Gomperts, R. E. Stratmann, 
 O. Yazyev, A. J. Austin, R. Cammi, C. Pomelli, J. W. Ochterski, 
 R. L. Martin, K. Morokuma, V. G. Zakrzewski, G. A. Voth, 
 P. Salvador, J. J. Dannenberg, S. Dapprich, A. D. Daniels, 
 O. Farkas, J. B. Foresman, J. V. Ortiz, J. Cioslowski, 
 and D. J. Fox, Gaussian, Inc., Wallingford CT, 2013.
 
 ******************************************
 Gaussian 09:  ES64L-G09RevD.01 24-Apr-2013
                29-Nov-2017 
 ******************************************
 %RWF=myrwf
 %NoSave
 %chk=esp.chk
 %NprocShared=4
 Will use up to    4 processors via shared memory.
 %Mem=16GB
 ----------------------------------------------------------------------
 #HF/6-31G* SCF=tight Test Pop=MK iop(6/33=2) iop(6/42=6) opt # iop(6/5
 0=1)
 ----------------------------------------------------------------------
 1/18=20,19=15,38=1/1,3;
 2/9=110,12=2,17=6,18=5,40=1/2;
 3/5=1,6=6,7=1,11=9,16=1,25=1,30=1,71=1/1,2,3;
 4//1;
 5/5=2,32=2,38=5/2;
 6/7=2,8=2,9=2,10=2,15=8,20=1,28=1,33=2,42=6,50=1/1,2;
 7//1,2,3,16;
 1/18=20,19=15/3(2);
 2/9=110/2;
 99//99;
 2/9=110/2;
 3/5=1,6=6,7=1,11=9,16=1,25=1,30=1,71=1/1,2,3;
 4/5=5,16=3,69=1/1;
 5/5=2,32=2,38=5/2;
 7//1,2,3,16;
 1/18=20,19=15/3(-5);
 2/9=110/2;
 6/7=2,8=2,9=2,10=2,15=8,19=2,20=1,28=1,33=2,42=6,50=1/1,2;
 99/9=1/99;
 ---------------------
 remark line goes here
 ---------------------
 Symbolic Z-matrix:
 Charge =  0 Multiplicity = 1
 H                     5.006    -1.64485  -1.09959 
 C                     4.08326  -1.13576  -1.33853 
 H                     3.53796  -1.70149  -2.0855 
 H                     4.3269   -0.16428  -1.75655 
 C                     3.29284  -0.93254  -0.06377 
 O                     3.82511  -0.79755   1.00314 
 H                    -3.66901   1.33886  -0.75698 
 H                    -1.69119   2.80913  -0.66244 
 C                    -2.7227    0.95545  -0.42695 
 C                    -1.61161   1.77848  -0.37436 
 Cl                   -3.97986  -1.41783  -0.10273 
 C                    -2.59517  -0.36464  -0.04524 
 C                    -0.39522   1.27885   0.05269 
 Cl                    0.9624    2.36986   0.10446 
 C                    -1.3793   -0.86304   0.38413 
 C                    -0.25382  -0.0506    0.44157 
 H                    -1.30516  -1.89231   0.68091 
 H                     1.56338   0.02783   1.59045 
 C                     1.06152  -0.63811   0.90581 
 H                     0.86626  -1.56109   1.44082 
 N                     1.94773  -0.87576  -0.21573 
 H                     1.54777  -1.05429  -1.10753 
 

 GradGradGradGradGradGradGradGradGradGradGradGradGradGradGradGradGradGrad
 Berny optimization.
 Initialization pass.
                           ----------------------------
                           !    Initial Parameters    !
                           ! (Angstroms and Degrees)  !
 --------------------------                            --------------------------
 ! Name  Definition              Value          Derivative Info.                !
 --------------------------------------------------------------------------------
 ! R1    R(1,2)                  1.0806         estimate D2E/DX2                !
 ! R2    R(2,3)                  1.0841         estimate D2E/DX2                !
 ! R3    R(2,4)                  1.0853         estimate D2E/DX2                !
 ! R4    R(2,5)                  1.5136         estimate D2E/DX2                !
 ! R5    R(5,6)                  1.1999         estimate D2E/DX2                !
 ! R6    R(5,21)                 1.3549         estimate D2E/DX2                !
 ! R7    R(7,9)                  1.073          estimate D2E/DX2                !
 ! R8    R(8,10)                 1.0731         estimate D2E/DX2                !
 ! R9    R(9,10)                 1.3837         estimate D2E/DX2                !
 ! R10   R(9,12)                 1.3801         estimate D2E/DX2                !
 ! R11   R(10,13)                1.3826         estimate D2E/DX2                !
 ! R12   R(11,12)                1.7406         estimate D2E/DX2                !
 ! R13   R(12,15)                1.3824         estimate D2E/DX2                !
 ! R14   R(13,14)                1.7424         estimate D2E/DX2                !
 ! R15   R(13,16)                1.3924         estimate D2E/DX2                !
 ! R16   R(15,16)                1.3893         estimate D2E/DX2                !
 ! R17   R(15,17)                1.0738         estimate D2E/DX2                !
 ! R18   R(16,19)                1.5135         estimate D2E/DX2                !
 ! R19   R(18,19)                1.0789         estimate D2E/DX2                !
 ! R20   R(19,20)                1.0846         estimate D2E/DX2                !
 ! R21   R(19,21)                1.449          estimate D2E/DX2                !
 ! R22   R(21,22)                0.9935         estimate D2E/DX2                !
 ! A1    A(1,2,3)              109.6337         estimate D2E/DX2                !
 ! A2    A(1,2,4)              108.3717         estimate D2E/DX2                !
 ! A3    A(1,2,5)              108.8411         estimate D2E/DX2                !
 ! A4    A(3,2,4)              108.3385         estimate D2E/DX2                !
 ! A5    A(3,2,5)              112.8095         estimate D2E/DX2                !
 ! A6    A(4,2,5)              108.7496         estimate D2E/DX2                !
 ! A7    A(2,5,6)              122.1604         estimate D2E/DX2                !
 ! A8    A(2,5,21)             115.4429         estimate D2E/DX2                !
 ! A9    A(6,5,21)             122.3713         estimate D2E/DX2                !
 ! A10   A(7,9,10)             120.4842         estimate D2E/DX2                !
 ! A11   A(7,9,12)             120.5535         estimate D2E/DX2                !
 ! A12   A(10,9,12)            118.962          estimate D2E/DX2                !
 ! A13   A(8,10,9)             120.0998         estimate D2E/DX2                !
 ! A14   A(8,10,13)            119.6851         estimate D2E/DX2                !
 ! A15   A(9,10,13)            120.2149         estimate D2E/DX2                !
 ! A16   A(9,12,11)            119.7431         estimate D2E/DX2                !
 ! A17   A(9,12,15)            120.7992         estimate D2E/DX2                !
 ! A18   A(11,12,15)           119.4577         estimate D2E/DX2                !
 ! A19   A(10,13,14)           117.93           estimate D2E/DX2                !
 ! A20   A(10,13,16)           121.376          estimate D2E/DX2                !
 ! A21   A(14,13,16)           120.6919         estimate D2E/DX2                !
 ! A22   A(12,15,16)           120.9664         estimate D2E/DX2                !
 ! A23   A(12,15,17)           119.4824         estimate D2E/DX2                !
 ! A24   A(16,15,17)           119.5508         estimate D2E/DX2                !
 ! A25   A(13,16,15)           117.6812         estimate D2E/DX2                !
 ! A26   A(13,16,19)           122.9941         estimate D2E/DX2                !
 ! A27   A(15,16,19)           119.3225         estimate D2E/DX2                !
 ! A28   A(16,19,18)           111.0565         estimate D2E/DX2                !
 ! A29   A(16,19,20)           108.9768         estimate D2E/DX2                !
 ! A30   A(16,19,21)           110.9625         estimate D2E/DX2                !
 ! A31   A(18,19,20)           107.2169         estimate D2E/DX2                !
 ! A32   A(18,19,21)           107.9321         estimate D2E/DX2                !
 ! A33   A(20,19,21)           110.6312         estimate D2E/DX2                !
 ! A34   A(5,21,19)            121.8197         estimate D2E/DX2                !
 ! A35   A(5,21,22)            119.5247         estimate D2E/DX2                !
 ! A36   A(19,21,22)           118.5549         estimate D2E/DX2                !
 ! D1    D(1,2,5,6)             29.9392         estimate D2E/DX2                !
 ! D2    D(1,2,5,21)          -151.8542         estimate D2E/DX2                !
 ! D3    D(3,2,5,6)            151.8537         estimate D2E/DX2                !
 ! D4    D(3,2,5,21)           -29.9398         estimate D2E/DX2                !
 ! D5    D(4,2,5,6)            -87.9339         estimate D2E/DX2                !
 ! D6    D(4,2,5,21)            90.2726         estimate D2E/DX2                !
 ! D7    D(2,5,21,19)         -177.7813         estimate D2E/DX2                !
 ! D8    D(2,5,21,22)            5.92           estimate D2E/DX2                !
 ! D9    D(6,5,21,19)            0.4211         estimate D2E/DX2                !
 ! D10   D(6,5,21,22)         -175.8776         estimate D2E/DX2                !
 ! D11   D(7,9,10,8)             0.1328         estimate D2E/DX2                !
 ! D12   D(7,9,10,13)          179.9524         estimate D2E/DX2                !
 ! D13   D(12,9,10,8)         -179.706          estimate D2E/DX2                !
 ! D14   D(12,9,10,13)           0.1136         estimate D2E/DX2                !
 ! D15   D(7,9,12,11)            0.1347         estimate D2E/DX2                !
 ! D16   D(7,9,12,15)         -179.8275         estimate D2E/DX2                !
 ! D17   D(10,9,12,11)         179.9734         estimate D2E/DX2                !
 ! D18   D(10,9,12,15)           0.0112         estimate D2E/DX2                !
 ! D19   D(8,10,13,14)           0.1716         estimate D2E/DX2                !
 ! D20   D(8,10,13,16)         179.6446         estimate D2E/DX2                !
 ! D21   D(9,10,13,14)        -179.6488         estimate D2E/DX2                !
 ! D22   D(9,10,13,16)          -0.1758         estimate D2E/DX2                !
 ! D23   D(9,12,15,16)          -0.0781         estimate D2E/DX2                !
 ! D24   D(9,12,15,17)         179.6924         estimate D2E/DX2                !
 ! D25   D(11,12,15,16)        179.9596         estimate D2E/DX2                !
 ! D26   D(11,12,15,17)         -0.2699         estimate D2E/DX2                !
 ! D27   D(10,13,16,15)          0.1075         estimate D2E/DX2                !
 ! D28   D(10,13,16,19)        179.5687         estimate D2E/DX2                !
 ! D29   D(14,13,16,15)        179.566          estimate D2E/DX2                !
 ! D30   D(14,13,16,19)         -0.9728         estimate D2E/DX2                !
 ! D31   D(12,15,16,13)          0.0188         estimate D2E/DX2                !
 ! D32   D(12,15,16,19)       -179.463          estimate D2E/DX2                !
 ! D33   D(17,15,16,13)       -179.7516         estimate D2E/DX2                !
 ! D34   D(17,15,16,19)          0.7667         estimate D2E/DX2                !
 ! D35   D(13,16,19,18)         44.2653         estimate D2E/DX2                !
 ! D36   D(13,16,19,20)        162.156          estimate D2E/DX2                !
 ! D37   D(13,16,19,21)        -75.7876         estimate D2E/DX2                !
 ! D38   D(15,16,19,18)       -136.2819         estimate D2E/DX2                !
 ! D39   D(15,16,19,20)        -18.3912         estimate D2E/DX2                !
 ! D40   D(15,16,19,21)        103.6652         estimate D2E/DX2                !
 ! D41   D(16,19,21,5)         155.9942         estimate D2E/DX2                !
 ! D42   D(16,19,21,22)        -27.6725         estimate D2E/DX2                !
 ! D43   D(18,19,21,5)          34.0983         estimate D2E/DX2                !
 ! D44   D(18,19,21,22)       -149.5684         estimate D2E/DX2                !
 ! D45   D(20,19,21,5)         -82.919          estimate D2E/DX2                !
 ! D46   D(20,19,21,22)         93.4144         estimate D2E/DX2                !
 --------------------------------------------------------------------------------
 Trust Radius=3.00D-01 FncErr=1.00D-07 GrdErr=1.00D-07
 Number of steps in this run=    114 maximum allowed number of steps=    132.
 GradGradGradGradGradGradGradGradGradGradGradGradGradGradGradGradGradGrad

                          Input orientation:                          
 ---------------------------------------------------------------------
 Center     Atomic      Atomic             Coordinates (Angstroms)
 Number     Number       Type             X           Y           Z
 ---------------------------------------------------------------------
      1          1           0        5.006001   -1.644848   -1.099592
      2          6           0        4.083264   -1.135759   -1.338530
      3          1           0        3.537963   -1.701491   -2.085502
      4          1           0        4.326902   -0.164284   -1.756551
      5          6           0        3.292843   -0.932537   -0.063769
      6          8           0        3.825111   -0.797552    1.003143
      7          1           0       -3.669012    1.338864   -0.756977
      8          1           0       -1.691189    2.809127   -0.662443
      9          6           0       -2.722699    0.955448   -0.426954
     10          6           0       -1.611605    1.778477   -0.374360
     11         17           0       -3.979856   -1.417827   -0.102732
     12          6           0       -2.595173   -0.364639   -0.045237
     13          6           0       -0.395223    1.278854    0.052686
     14         17           0        0.962402    2.369863    0.104457
     15          6           0       -1.379302   -0.863035    0.384125
     16          6           0       -0.253823   -0.050601    0.441573
     17          1           0       -1.305161   -1.892313    0.680908
     18          1           0        1.563383    0.027825    1.590449
     19          6           0        1.061520   -0.638110    0.905812
     20          1           0        0.866259   -1.561087    1.440822
     21          7           0        1.947729   -0.875755   -0.215731
     22          1           0        1.547774   -1.054290   -1.107527
 ---------------------------------------------------------------------
                    Distance matrix (angstroms):
                    1          2          3          4          5
     1  H    0.000000
     2  C    1.080605   0.000000
     3  H    1.769283   1.084146   0.000000
     4  H    1.756371   1.085295   1.758874   0.000000
     5  C    2.124906   1.513631   2.176874   2.127205   0.000000
     6  O    2.556151   2.380012   3.230989   2.875541   1.199930
     7  H    9.180184   8.158416   7.934055   8.197148   7.355761
     8  H    8.054896   7.025918   7.050872   6.801152   6.260913
     9  C    8.182101   7.178109   7.000428   7.260751   6.315310
    10  C    7.485842   6.469461   6.446413   6.399269   5.612457
    11  Cl   9.043832   8.162148   7.780067   8.562051   7.288976
    12  C    7.780003   6.846076   6.600395   7.133292   5.915368
    13  C    6.248920   5.274721   5.378128   5.258750   4.301819
    14  Cl   5.823945   4.910334   5.292009   4.604901   4.045380
    15  C    6.601874   5.734243   5.566108   6.134453   4.694079
    16  C    5.708114   4.812137   4.846564   5.082097   3.689447
    17  H    6.562178   5.803932   5.580796   6.375533   4.755771
    18  H    4.678223   4.035176   4.516870   4.344692   2.578714
    19  C    4.538072   3.796796   4.026352   4.239741   2.450628
    20  H    4.857796   4.272566   4.426362   4.914296   2.923556
    21  N    3.275018   2.426683   2.589735   2.922462   1.354861
    22  H    3.508298   2.547294   2.310012   2.989464   2.037037
                    6          7          8          9         10
     6  O    0.000000
     7  H    7.989003   0.000000
     8  H    6.797932   2.466251   0.000000
     9  C    6.927626   1.073048   2.134384   0.000000
    10  C    6.171817   2.138359   1.073110   1.383717   0.000000
    11  Cl   7.907288   2.850264   4.839258   2.705180   3.987324
    12  C    6.519706   2.135796   3.357219   1.380073   2.380898
    13  C    4.798547   3.372959   2.129007   2.398289   1.382598
    14  Cl   4.362941   4.822346   2.796897   3.982830   2.684123
    15  C    5.241506   3.375388   3.831103   2.401967   2.758052
    16  C    4.184615   3.876938   3.385693   2.803894   2.419679
    17  H    5.255666   4.253917   4.904809   3.368459   3.831736
    18  H    2.478223   5.882788   4.837706   4.827100   4.123810
    19  C    2.769897   5.389919   4.681909   4.316944   3.824177
    20  H    3.086965   5.814527   5.482977   4.764678   4.537332
    21  N    2.239717   6.061787   5.198041   5.021037   4.442856
    22  H    3.115623   5.750211   5.061124   4.768560   4.306249
                   11         12         13         14         15
    11  Cl   0.000000
    12  C    1.740649   0.000000
    13  C    4.488411   2.747806   0.000000
    14  Cl   6.230204   4.489571   1.742448   0.000000
    15  C    2.703277   1.382423   2.380326   4.001677   0.000000
    16  C    4.006107   2.411954   1.392364   2.729743   1.389263
    17  H    2.827229   2.127253   3.358415   4.862127   1.073774
    18  H    5.973631   4.485876   2.786741   2.838044   3.302763
    19  C    5.200057   3.788230   2.554344   3.114466   2.506065
    20  H    5.088017   3.952388   3.403458   4.153009   2.578067
    21  N    5.953392   4.574742   3.194341   3.406967   3.380699
    22  H    5.629961   4.332215   3.250368   3.679183   3.290802
                   16         17         18         19         20
    16  C    0.000000
    17  H    2.134127   0.000000
    18  H    2.151349   3.569697   0.000000
    19  C    1.513543   2.687896   1.078918   0.000000
    20  H    2.129472   2.324273   1.741554   1.084550   0.000000
    21  N    2.441262   3.524010   2.055837   1.449034   2.093663
    22  H    2.579313   3.469873   2.906938   2.112625   2.686148
                   21         22
    21  N    0.000000
    22  H    0.993549   0.000000
 Stoichiometry    C9H9Cl2NO
 Framework group  C1[X(C9H9Cl2NO)]
 Deg. of freedom    60
 Full point group                 C1      NOp   1
 Largest Abelian subgroup         C1      NOp   1
 Largest concise Abelian subgroup C1      NOp   1
                         Standard orientation:                         
 ---------------------------------------------------------------------
 Center     Atomic      Atomic             Coordinates (Angstroms)
 Number     Number       Type             X           Y           Z
 ---------------------------------------------------------------------
      1          1           0       -5.006001   -1.644848    1.099592
      2          6           0       -4.083264   -1.135759    1.338530
      3          1           0       -3.537963   -1.701491    2.085502
      4          1           0       -4.326902   -0.164284    1.756551
      5          6           0       -3.292843   -0.932537    0.063769
      6          8           0       -3.825111   -0.797552   -1.003143
      7          1           0        3.669012    1.338864    0.756977
      8          1           0        1.691189    2.809127    0.662443
      9          6           0        2.722699    0.955448    0.426954
     10          6           0        1.611605    1.778477    0.374360
     11         17           0        3.979856   -1.417827    0.102732
     12          6           0        2.595173   -0.364639    0.045237
     13          6           0        0.395223    1.278854   -0.052686
     14         17           0       -0.962402    2.369863   -0.104457
     15          6           0        1.379302   -0.863035   -0.384125
     16          6           0        0.253823   -0.050601   -0.441573
     17          1           0        1.305161   -1.892313   -0.680908
     18          1           0       -1.563383    0.027825   -1.590449
     19          6           0       -1.061520   -0.638110   -0.905812
     20          1           0       -0.866259   -1.561087   -1.440822
     21          7           0       -1.947729   -0.875755    0.215731
     22          1           0       -1.547774   -1.054290    1.107527
 ---------------------------------------------------------------------
 Rotational constants (GHZ):      1.0275996      0.3164095      0.2600346
 Standard basis: 6-31G(d) (6D, 7F)
 There are   221 symmetry adapted cartesian basis functions of A   symmetry.
 There are   221 symmetry adapted basis functions of A   symmetry.
   221 basis functions,   448 primitive gaussians,   221 cartesian basis functions
    56 alpha electrons       56 beta electrons
       nuclear repulsion energy       938.3543367335 Hartrees.
 NAtoms=   22 NActive=   22 NUniq=   22 SFac= 1.00D+00 NAtFMM=   60 NAOKFM=F Big=F
 Integral buffers will be    131072 words long.
 Raffenetti 1 integral format.
 Two-electron integral symmetry is turned on.
 One-electron integrals computed using PRISM.
 NBasis=   221 RedAO= T EigKep=  3.87D-04  NBF=   221
 NBsUse=   221 1.00D-06 EigRej= -1.00D+00 NBFU=   221
 ExpMin= 1.43D-01 ExpMax= 2.52D+04 ExpMxC= 3.78D+03 IAcc=1 IRadAn=         1 AccDes= 0.00D+00
 Harris functional with IExCor=  205 and IRadAn=       1 diagonalized for initial guess.
 HarFok:  IExCor=  205 AccDes= 0.00D+00 IRadAn=         1 IDoV= 1 UseB2=F ITyADJ=14
 ICtDFT=  3500011 ScaDFX=  1.000000  1.000000  1.000000  1.000000
 FoFCou: FMM=F IPFlag=           0 FMFlag=      100000 FMFlg1=           0
         NFxFlg=           0 DoJE=T BraDBF=F KetDBF=T FulRan=T
         wScrn=  0.000000 ICntrl=     500 IOpCl=  0 I1Cent=   200000004 NGrid=           0
         NMat0=    1 NMatS0=      1 NMatT0=    0 NMatD0=    1 NMtDS0=    0 NMtDT0=    0
 Petite list used in FoFCou.
 Keep R1 ints in memory in canonical form, NReq=306535721.
 Requested convergence on RMS density matrix=1.00D-08 within 128 cycles.
 Requested convergence on MAX density matrix=1.00D-06.
 Requested convergence on             energy=1.00D-06.
 No special actions if energy rises.
 SCF Done:  E(RHF) =  -1394.34945823     A.U. after   14 cycles
            NFock= 14  Conv=0.81D-08     -V/T= 2.0007

 **********************************************************************

            Population analysis using the SCF density.

 **********************************************************************

 Orbital symmetries:
 BldTbl:  Degeneracy threshold= 1.00D-02
       Occupied  (A) (A) (A) (A) (A) (A) (A) (A) (A) (A) (A) (A)
                 (A) (A) (A) (A) (A) (A) (A) (A) (A) (A) (A) (A)
                 (A) (A) (A) (A) (A) (A) (A) (A) (A) (A) (A) (A)
                 (A) (A) (A) (A) (A) (A) (A) (A) (A) (A) (A) (A)
                 (A) (A) (A) (A) (A) (A) (A) (A)
       Virtual   (A) (A) (A) (A) (A) (A) (A) (A) (A) (A) (A) (A)
                 (A) (A) (A) (A) (A) (A) (A) (A) (A) (A) (A) (A)
                 (A) (A) (A) (A) (A) (A) (A) (A) (A) (A) (A) (A)
                 (A) (A) (A) (A) (A) (A) (A) (A) (A) (A) (A) (A)
                 (A) (A) (A) (A) (A) (A) (A) (A) (A) (A) (A) (A)
                 (A) (A) (A) (A) (A) (A) (A) (A) (A) (A) (A) (A)
                 (A) (A) (A) (A) (A) (A) (A) (A) (A) (A) (A) (A)
                 (A) (A) (A) (A) (A) (A) (A) (A) (A) (A) (A) (A)
                 (A) (A) (A) (A) (A) (A) (A) (A) (A) (A) (A) (A)
                 (A) (A) (A) (A) (A) (A) (A) (A) (A) (A) (A) (A)
                 (A) (A) (A) (A) (A) (A) (A) (A) (A) (A) (A) (A)
                 (A) (A) (A) (A) (A) (A) (A) (A) (A) (A) (A) (A)
                 (A) (A) (A) (A) (A) (A) (A) (A) (A) (A) (A) (A)
                 (A) (A) (A) (A) (A) (A) (A) (A) (A)
 The electronic state is 1-A.
 Alpha  occ. eigenvalues -- -104.84013-104.83764 -20.52106 -15.58913 -11.34792
 Alpha  occ. eigenvalues --  -11.32018 -11.32014 -11.27968 -11.27807 -11.26957
 Alpha  occ. eigenvalues --  -11.26862 -11.26821 -11.23319 -10.57349 -10.57094
 Alpha  occ. eigenvalues --   -8.04289  -8.04033  -8.03952  -8.03949  -8.03696
 Alpha  occ. eigenvalues --   -8.03693  -1.39057  -1.24591  -1.21861  -1.17186
 Alpha  occ. eigenvalues --   -1.10768  -1.07549  -1.01652  -0.99089  -0.94332
 Alpha  occ. eigenvalues --   -0.86279  -0.81692  -0.79849  -0.70943  -0.70167
 Alpha  occ. eigenvalues --   -0.68466  -0.66014  -0.65202  -0.63051  -0.60377
 Alpha  occ. eigenvalues --   -0.59333  -0.58605  -0.58185  -0.57103  -0.55745
 Alpha  occ. eigenvalues --   -0.54046  -0.52373  -0.51873  -0.50654  -0.46728
 Alpha  occ. eigenvalues --   -0.46303  -0.45900  -0.42015  -0.39412  -0.36759
 Alpha  occ. eigenvalues --   -0.34233
 Alpha virt. eigenvalues --    0.10580   0.10934   0.17426   0.20364   0.21188
 Alpha virt. eigenvalues --    0.22450   0.25828   0.27581   0.27957   0.30446
 Alpha virt. eigenvalues --    0.30566   0.31535   0.32258   0.32737   0.34725
 Alpha virt. eigenvalues --    0.39228   0.40386   0.41471   0.42932   0.43744
 Alpha virt. eigenvalues --    0.47170   0.47446   0.50529   0.54905   0.57491
 Alpha virt. eigenvalues --    0.58861   0.59754   0.61561   0.61773   0.62476
 Alpha virt. eigenvalues --    0.63583   0.64417   0.68335   0.69865   0.72297
 Alpha virt. eigenvalues --    0.74219   0.74783   0.75774   0.79161   0.79420
 Alpha virt. eigenvalues --    0.79866   0.81054   0.82018   0.82286   0.83381
 Alpha virt. eigenvalues --    0.84298   0.87209   0.88642   0.89238   0.93244
 Alpha virt. eigenvalues --    0.96687   0.97894   0.98935   0.99787   1.00108
 Alpha virt. eigenvalues --    1.01109   1.05195   1.07501   1.08086   1.08693
 Alpha virt. eigenvalues --    1.10224   1.11521   1.12006   1.13364   1.14055
 Alpha virt. eigenvalues --    1.14534   1.15330   1.16342   1.17224   1.17384
 Alpha virt. eigenvalues --    1.19519   1.19977   1.21661   1.22277   1.22987
 Alpha virt. eigenvalues --    1.23315   1.25606   1.26717   1.29710   1.32757
 Alpha virt. eigenvalues --    1.33925   1.35933   1.38410   1.39632   1.42551
 Alpha virt. eigenvalues --    1.43750   1.47020   1.50087   1.55010   1.57445
 Alpha virt. eigenvalues --    1.59326   1.60637   1.65124   1.66345   1.68181
 Alpha virt. eigenvalues --    1.69313   1.72010   1.73324   1.75348   1.79595
 Alpha virt. eigenvalues --    1.83256   1.84294   1.86499   1.94171   2.02125
 Alpha virt. eigenvalues --    2.05685   2.07235   2.07978   2.09874   2.11232
 Alpha virt. eigenvalues --    2.12711   2.15141   2.19714   2.22675   2.23740
 Alpha virt. eigenvalues --    2.26460   2.31638   2.33567   2.36453   2.38222
 Alpha virt. eigenvalues --    2.39065   2.42414   2.43463   2.46501   2.49319
 Alpha virt. eigenvalues --    2.51968   2.53951   2.57389   2.58064   2.60108
 Alpha virt. eigenvalues --    2.65208   2.67082   2.68841   2.71154   2.77312
 Alpha virt. eigenvalues --    2.80202   2.86111   2.93085   2.95372   2.97693
 Alpha virt. eigenvalues --    3.04233   3.04684   3.06947   3.09288   3.09874
 Alpha virt. eigenvalues --    3.13209   3.20625   3.30200   3.37878   3.41640
 Alpha virt. eigenvalues --    3.56257   3.73628   4.37921   4.46421   4.47301
 Alpha virt. eigenvalues --    4.49180   4.53224   4.62429   4.64784   4.72262
 Alpha virt. eigenvalues --    4.75161   4.78541   4.83629   4.92491   5.11328
          Condensed to atoms (all electrons):
               1          2          3          4          5          6
     1  H    0.468101   0.384228  -0.022334  -0.017939  -0.031066   0.002562
     2  C    0.384228   5.254904   0.374741   0.377352   0.374395  -0.071658
     3  H   -0.022334   0.374741   0.532516  -0.024029  -0.037500   0.002404
     4  H   -0.017939   0.377352  -0.024029   0.484735  -0.026112   0.000072
     5  C   -0.031066   0.374395  -0.037500  -0.026112   4.132648   0.615828
     6  O    0.002562  -0.071658   0.002404   0.000072   0.615828   8.144173
     7  H    0.000000   0.000000   0.000000   0.000000   0.000000   0.000000
     8  H    0.000000   0.000000   0.000000   0.000000   0.000000   0.000000
     9  C    0.000000   0.000000   0.000000   0.000000   0.000000   0.000000
    10  C    0.000000   0.000000   0.000000   0.000000   0.000000   0.000000
    11  Cl   0.000000   0.000000   0.000000   0.000000   0.000000   0.000000
    12  C    0.000000   0.000000   0.000000   0.000000   0.000001   0.000000
    13  C    0.000000  -0.000011  -0.000001  -0.000001   0.000129   0.000019
    14  Cl   0.000000  -0.000022  -0.000001   0.000060   0.000472  -0.000084
    15  C    0.000000  -0.000005   0.000000   0.000000  -0.000112  -0.000009
    16  C    0.000000  -0.000039  -0.000041   0.000009   0.004446   0.000774
    17  H    0.000000   0.000001   0.000000   0.000000   0.000000   0.000001
    18  H   -0.000012   0.000233  -0.000008   0.000005  -0.001094   0.006339
    19  C   -0.000108   0.004757   0.000011  -0.000149  -0.026141   0.007874
    20  H    0.000013  -0.000034  -0.000009  -0.000006  -0.001766   0.000997
    21  N    0.003730  -0.118246   0.005085   0.000399   0.260026  -0.107187
    22  H   -0.000034  -0.000744   0.001115   0.000139  -0.015183   0.002405
               7          8          9         10         11         12
     1  H    0.000000   0.000000   0.000000   0.000000   0.000000   0.000000
     2  C    0.000000   0.000000   0.000000   0.000000   0.000000   0.000000
     3  H    0.000000   0.000000   0.000000   0.000000   0.000000   0.000000
     4  H    0.000000   0.000000   0.000000   0.000000   0.000000   0.000000
     5  C    0.000000   0.000000   0.000000   0.000000   0.000000   0.000001
     6  O    0.000000   0.000000   0.000000   0.000000   0.000000   0.000000
     7  H    0.426810  -0.001835   0.382674  -0.025827   0.000246  -0.028291
     8  H   -0.001835   0.425718  -0.025438   0.382946  -0.000084   0.002361
     9  C    0.382674  -0.025438   4.935220   0.530626  -0.066668   0.533587
    10  C   -0.025827   0.382946   0.530626   4.952446   0.002914  -0.038118
    11  Cl   0.000246  -0.000084  -0.066668   0.002914  16.899180   0.216789
    12  C   -0.028291   0.002361   0.533587  -0.038118   0.216789   5.031231
    13  C    0.002387  -0.027790  -0.040332   0.525654   0.000156  -0.038917
    14  Cl  -0.000088   0.000281   0.002822  -0.074343   0.000005   0.000175
    15  C    0.002265   0.000274  -0.049930  -0.037261  -0.067921   0.517702
    16  C    0.000166   0.001680  -0.027722  -0.049607   0.002791  -0.037443
    17  H   -0.000108   0.000009   0.002301   0.000078   0.000266  -0.028637
    18  H    0.000000   0.000000  -0.000002   0.000047   0.000001  -0.000053
    19  C    0.000004  -0.000091   0.000075   0.002440  -0.000098   0.003061
    20  H    0.000000   0.000001  -0.000021  -0.000035  -0.000012   0.000315
    21  N    0.000000   0.000001   0.000031  -0.000157   0.000001  -0.000091
    22  H    0.000000   0.000001  -0.000024  -0.000068   0.000001  -0.000019
              13         14         15         16         17         18
     1  H    0.000000   0.000000   0.000000   0.000000   0.000000  -0.000012
     2  C   -0.000011  -0.000022  -0.000005  -0.000039   0.000001   0.000233
     3  H   -0.000001  -0.000001   0.000000  -0.000041   0.000000  -0.000008
     4  H   -0.000001   0.000060   0.000000   0.000009   0.000000   0.000005
     5  C    0.000129   0.000472  -0.000112   0.004446   0.000000  -0.001094
     6  O    0.000019  -0.000084  -0.000009   0.000774   0.000001   0.006339
     7  H    0.002387  -0.000088   0.002265   0.000166  -0.000108   0.000000
     8  H   -0.027790   0.000281   0.000274   0.001680   0.000009   0.000000
     9  C   -0.040332   0.002822  -0.049930  -0.027722   0.002301  -0.000002
    10  C    0.525654  -0.074343  -0.037261  -0.049607   0.000078   0.000047
    11  Cl   0.000156   0.000005  -0.067921   0.002791   0.000266   0.000001
    12  C   -0.038917   0.000175   0.517702  -0.037443  -0.028637  -0.000053
    13  C    5.086879   0.226559  -0.041982   0.507912   0.003067  -0.006347
    14  Cl   0.226559  16.891835   0.002226  -0.071775  -0.000081  -0.002241
    15  C   -0.041982   0.002226   4.981891   0.545512   0.381594   0.002069
    16  C    0.507912  -0.071775   0.545512   4.962500  -0.028382  -0.034637
    17  H    0.003067  -0.000081   0.381594  -0.028382   0.429864   0.000007
    18  H   -0.006347  -0.002241   0.002069  -0.034637   0.000007   0.449461
    19  C   -0.044016  -0.002444  -0.035214   0.321394  -0.003278   0.415815
    20  H    0.004386   0.000465  -0.003636  -0.053335   0.002495  -0.030411
    21  N   -0.002225  -0.000251  -0.001362  -0.051995   0.000127  -0.044009
    22  H    0.001051  -0.000278   0.001547  -0.001444   0.000057   0.002778
              19         20         21         22
     1  H   -0.000108   0.000013   0.003730  -0.000034
     2  C    0.004757  -0.000034  -0.118246  -0.000744
     3  H    0.000011  -0.000009   0.005085   0.001115
     4  H   -0.000149  -0.000006   0.000399   0.000139
     5  C   -0.026141  -0.001766   0.260026  -0.015183
     6  O    0.007874   0.000997  -0.107187   0.002405
     7  H    0.000004   0.000000   0.000000   0.000000
     8  H   -0.000091   0.000001   0.000001   0.000001
     9  C    0.000075  -0.000021   0.000031  -0.000024
    10  C    0.002440  -0.000035  -0.000157  -0.000068
    11  Cl  -0.000098  -0.000012   0.000001   0.000001
    12  C    0.003061   0.000315  -0.000091  -0.000019
    13  C   -0.044016   0.004386  -0.002225   0.001051
    14  Cl  -0.002444   0.000465  -0.000251  -0.000278
    15  C   -0.035214  -0.003636  -0.001362   0.001547
    16  C    0.321394  -0.053335  -0.051995  -0.001444
    17  H   -0.003278   0.002495   0.000127   0.000057
    18  H    0.415815  -0.030411  -0.044009   0.002778
    19  C    4.884123   0.419925   0.179298  -0.021974
    20  H    0.419925   0.516845  -0.047086   0.001207
    21  N    0.179298  -0.047086   7.405969   0.319533
    22  H   -0.021974   0.001207   0.319533   0.323645
 Mulliken charges:
               1
     1  H    0.212859
     2  C   -0.579852
     3  H    0.168051
     4  H    0.205465
     5  C    0.751029
     6  O   -0.604509
     7  H    0.241597
     8  H    0.241965
     9  C   -0.177198
    10  C   -0.171733
    11  Cl   0.012432
    12  C   -0.133650
    13  C   -0.156575
    14  Cl   0.026708
    15  C   -0.197647
    16  C    0.009239
    17  H    0.240620
    18  H    0.242060
    19  C   -0.105262
    20  H    0.189704
    21  N   -0.801593
    22  H    0.386291
 Sum of Mulliken charges =   0.00000
 Mulliken charges with hydrogens summed into heavy atoms:
               1
     2  C    0.006523
     5  C    0.751029
     6  O   -0.604509
     9  C    0.064399
    10  C    0.070232
    11  Cl   0.012432
    12  C   -0.133650
    13  C   -0.156575
    14  Cl   0.026708
    15  C    0.042972
    16  C    0.009239
    19  C    0.326501
    21  N   -0.415302
 DipInt: DoE/N= T F RetVal/Mat= T F Init=T NMatP=  1 IDeriv=0 Min/MaxMlt=  0  4
 Entering OneElI...
 OneElI was handed  2147355904 working-precision words.
 Multipole integrals L=0 to 4 MinM= 0 MaxM= 0.
 Requested accuracy = 0.1000D-12
 ShPair: Thresh= 1.00D-13 NBox=     0 BxSize= 0.00D+00 RnKept= 1.73D+01
         NSMCal=                 2628 NSMKep=                2245
 PrsmSu:  NPrtUS=   1 ThrOK=F IAlg=1 NPAlg=1 LenDen=           0.
 Prism:   IPart=     0 DynPar=F LinDyn=F Incr=          22.
 PRISM was handed  2147139057 working-precision words and  2245 shell-pairs
 IPart=  0 NShTot=        2245 NBatch=          53 AvBLen=        42.4
 PrSmSu:  NxtVal=             23.
 Electronic moments (au):
       -112.00000000          0.82779658         -0.06890292          1.20347769
      -2910.11725127       -841.26597255       -225.95195082          4.26770723
         -7.71177699         -0.35511586         85.65779951      -1383.59133578
        -81.93141422       -114.53754155       4345.43064005      -1027.83727035
        760.27031076        222.13716497       -103.18407210       -340.64335038
    -144167.72028083     -13202.85448184      -1752.48780323         48.71780454
       3089.39025953       2331.58004412        171.80753258        960.14635222
        233.45693089     -17106.39173368      -8050.45127790      -1323.41603902
       1846.91167143        124.95680888      -1649.87544319
 Electronic spatial extent (au):  <R**2>=           3977.3352
 DipInt: DoE/N= F T RetVal/Mat= T F Init=T NMatP=  1 IDeriv=0 Min/MaxMlt=  0  4
 Nuclear    moments (au):
        112.00000000          0.00000000          0.00000000          0.00000000
       2834.00228499        776.70546628        158.58621033          0.00000000
         -0.00003207          0.00001926        -54.13816997       1381.09867646
         83.83318111        116.71896127      -4313.91037381       1103.07804016
       -763.89095141       -225.37542785        109.55368103        363.21590423
     133619.94754660      10373.90494743        955.71264743         -3.78068170
      -3508.69274621      -2327.69573098       -132.86003872       -965.99854567
       -245.58530487      15048.68384600       6148.83918305        708.22328360
      -1914.78642127       -121.84529918       1631.19021340
 Total      moments (au):
          0.00000000          0.82779658         -0.06890292          1.20347769
        -76.11496628        -64.56050627        -67.36574049          4.26770723
         -7.71180906         -0.35509659         31.51962954         -2.49265933
          1.90176688          2.18141972         31.52026623         75.24076981
         -3.62064065         -3.23826289          6.36960893         22.57255385
     -10547.77273423      -2828.94953441       -796.77515580         44.93712283
       -419.30248668          3.88431314         38.94749386         -5.85219345
        -12.12837398      -2057.70788768      -1901.61209485       -615.19275542
        -67.87474984          3.11150970        -18.68522979
 Traceless Quadrup. (au):
         -6.76789527          4.78656474          1.98133052          4.26770723
         -7.71180906         -0.35509659
 Charge=              0.0000 electrons
 Dipole moment (field-independent basis, Debye):
    X=              2.1040    Y=             -0.1751    Z=              3.0589  Tot=              3.7168
 Quadrupole moment (field-independent basis, Debye-Ang):
   XX=           -102.3772   YY=            -86.8361   ZZ=            -90.6092
   XY=              5.7402   XZ=            -10.3726   YZ=             -0.4776
 Traceless Quadrupole moment (field-independent basis, Debye-Ang):
   XX=             -9.1031   YY=              6.4381   ZZ=              2.6650
   XY=              5.7402   XZ=            -10.3726   YZ=             -0.4776
 Octapole moment (field-independent basis, Debye-Ang**2):
  XXX=             22.4345  YYY=             -1.7742  ZZZ=              1.3536  XYY=              1.5527
  XXY=             22.4349  XXZ=             53.5535  XZZ=             -2.5770  YZZ=             -2.3049
  YYZ=              4.5336  XYZ=             16.0663
 Hexadecapole moment (field-independent basis, Debye-Ang**3):
 XXXX=          -3972.7967 YYYY=          -1065.5180 ZZZZ=           -300.1037 XXXY=             16.9255
 XXXZ=           -157.9294 YYYX=              1.4630 YYYZ=             14.6695 ZZZX=             -2.2042
 ZZZY=             -4.5681 XXYY=           -775.0314 XXZZ=           -716.2383 YYZZ=           -231.7111
 XXYZ=            -25.5649 YYXZ=              1.1719 ZZXY=             -7.0378
 N-N= 9.383543367335D+02 E-N=-5.174899671771D+03  KE= 1.393348148091D+03
 Entering OneElI...
 OneElI was handed  2147379664 working-precision words.
 Calculate electrostatic properties
    NBasis =   221  MinDer = 0  MaxDer = 0
    NGrid  =    22  NMatD  =   1
 Requested accuracy = 0.1000D-12
 PrtBox:  NBox=     1 Levels=  1 BoxLen=   32.45 SMaxX=       16.98
          Shift=            9.459971            3.575953            3.005513
 Box      1 Number                   0 centers from      1 to     72:
 ShPair: Thresh= 1.00D-13 NBox=     1 BxSize= 3.24D+01 RnKept= 1.71D+01
         NSMCal=                 2628 NSMKep=                2048
 PrsmSu:  NPrtUS=   4 ThrOK=T IAlg=1 NPAlg=1 LenDen=           0.
 Prism:   IPart=     0 DynPar=F LinDyn=F Incr=         112.
 PRISM was handed   536741879 working-precision words and  2048 shell-pairs
 PRISM was handed   536741879 working-precision words and  2048 shell-pairs
 PRISM was handed   536741879 working-precision words and  2048 shell-pairs
 PRISM was handed   536741879 working-precision words and  2048 shell-pairs
 IPart=  3 NShTot=       10912 NBatch=         496 AvBLen=        22.0
 IPart=  0 NShTot=       11682 NBatch=         531 AvBLen=        22.0
 IPart=  2 NShTot=       11088 NBatch=         504 AvBLen=        22.0
 IPart=  1 NShTot=       11374 NBatch=         517 AvBLen=        22.0
 PrSmSu:  NxtVal=            449.
 --------------------------------------------------------
       Center         ----      EFG at Nuclei      ----
                      3XX-RR        3YY-RR        3ZZ-RR
 --------------------------------------------------------
     1   Atom       -0.188918      0.055294      0.133623
     2   Atom        0.014649      0.016946     -0.031595
     3   Atom        0.029335      0.036328     -0.065663
     4   Atom        0.135807     -0.220108      0.084301
     5   Atom        0.158541     -0.521096      0.362556
     6   Atom        1.130491     -0.763944     -0.366547
     7   Atom       -0.218934      0.090732      0.128202
     8   Atom        0.149484     -0.288316      0.138833
     9   Atom        0.148084      0.112643     -0.260727
    10   Atom        0.130285      0.137871     -0.268156
    11   Atom       -1.630624     -0.143735      1.774359
    12   Atom       -0.056477      0.116370     -0.059893
    13   Atom       -0.045886      0.092471     -0.046585
    14   Atom       -1.373725     -0.363708      1.737432
    15   Atom        0.129227      0.120268     -0.249495
    16   Atom        0.149599      0.114344     -0.263943
    17   Atom        0.147577     -0.285006      0.137429
    18   Atom        0.057947     -0.021034     -0.036913
    19   Atom       -0.068161      0.149635     -0.081473
    20   Atom        0.131314     -0.177674      0.046360
    21   Atom       -0.492216      0.973479     -0.481263
    22   Atom        0.075555      0.243776     -0.319332
 --------------------------------------------------------
                        XY            XZ            YZ
 --------------------------------------------------------
     1   Atom       -0.195070     -0.085775     -0.049297
     2   Atom        0.006904      0.040756      0.027541
     3   Atom        0.125616     -0.159851      0.172460
     4   Atom        0.092568      0.045610     -0.160934
     5   Atom        0.035803     -0.001139     -0.138264
     6   Atom        0.228921     -0.991009     -0.125061
     7   Atom       -0.150961     -0.135602     -0.059242
     8   Atom       -0.034394     -0.015526     -0.129761
     9   Atom       -0.040793      0.101522      0.102112
    10   Atom       -0.049559      0.096589      0.108562
    11   Atom        2.671517     -0.118134      0.146179
    12   Atom        0.286719      0.092403      0.131869
    13   Atom        0.288035      0.089202      0.124233
    14   Atom        2.772158     -0.074218      0.127276
    15   Atom       -0.041715      0.093060      0.105232
    16   Atom       -0.041655      0.085247      0.098499
    17   Atom       -0.032335     -0.015928     -0.132753
    18   Atom        0.128699     -0.127793      0.187097
    19   Atom       -0.129879      0.171480      0.004447
    20   Atom        0.069428      0.046655     -0.192452
    21   Atom       -0.068022      0.031541      0.312731
    22   Atom        0.040951     -0.223931      0.119390
 --------------------------------------------------------


 ---------------------------------------------------------------------------------
              Nuclear Quadrupole Coupling Constant in Principal Axis System
 ---------------------------------------------------------------------------------

       Atom             a.u.   MegaHertz   Gauss  10(-4) cm-1        Axes

              Baa    -3.6663   -70.338   -25.098   -23.462  0.7957 -0.6048  0.0335
    11 Cl(35) Bbb     1.7639    33.841    12.075    11.288 -0.2342 -0.2561  0.9378
              Bcc     1.9024    36.497    13.023    12.174  0.5586  0.7540  0.3455
 
              Baa    -3.6900   -70.793   -25.261   -23.614  0.7675 -0.6406  0.0255
    14 Cl(35) Bbb     1.7295    33.180    11.840    11.068 -0.1618 -0.1551  0.9746
              Bcc     1.9605    37.613    13.421    12.546  0.6203  0.7521  0.2227
 
              Baa    -0.5715     2.745     0.979     0.916 -0.5012 -0.1928  0.8436
    21 N(14)  Bbb    -0.4687     2.251     0.803     0.751  0.8645 -0.0673  0.4982
              Bcc     1.0402    -4.996    -1.783    -1.666 -0.0393  0.9789  0.2004
 

 ---------------------------------------------------------------------------------

 No NMR shielding tensors so no spin-rotation constants.
 Leave Link  601 at Wed Nov 29 20:37:02 2017, MaxMem=  2147483648 cpu:         0.4
 FitSet:  NAtFit=    22 NAtPot=    22 NAtFrz=     0 MDM=    26 TotChg=   0.00000
 Merz-Kollman atomic radii used.
 Atom Element Radius
    1     1    1.20
    2     6    1.50
    3     1    1.20
    4     1    1.20
    5     6    1.50
    6     8    1.40
    7     1    1.20
    8     1    1.20
    9     6    1.50
   10     6    1.50
   11    17    1.70
   12     6    1.50
   13     6    1.50
   14    17    1.70
   15     6    1.50
   16     6    1.50
   17     1    1.20
   18     1    1.20
   19     6    1.50
   20     1    1.20
   21     7    1.50
   22     1    1.20
 Generate VDW surfaces: Layer= 4 Dens= 6 Start= 1.400 Inc= 0.200

 **********************************************************************

            Electrostatic Properties Using The SCF Density

 **********************************************************************

       Atomic Center    1 is at  -5.006001 -1.644848  1.099592
       Atomic Center    2 is at  -4.083264 -1.135759  1.338530
       Atomic Center    3 is at  -3.537963 -1.701491  2.085502
       Atomic Center    4 is at  -4.326902 -0.164284  1.756551
       Atomic Center    5 is at  -3.292843 -0.932537  0.063769
       Atomic Center    6 is at  -3.825111 -0.797552 -1.003143
       Atomic Center    7 is at   3.669012  1.338864  0.756977
       Atomic Center    8 is at   1.691189  2.809127  0.662443
       Atomic Center    9 is at   2.722699  0.955448  0.426954
       Atomic Center   10 is at   1.611605  1.778477  0.374360
       Atomic Center   11 is at   3.979856 -1.417827  0.102732
       Atomic Center   12 is at   2.595173 -0.364639  0.045237
       Atomic Center   13 is at   0.395223  1.278854 -0.052686
       Atomic Center   14 is at  -0.962402  2.369863 -0.104457
       Atomic Center   15 is at   1.379302 -0.863035 -0.384125
       Atomic Center   16 is at   0.253823 -0.050601 -0.441573
       Atomic Center   17 is at   1.305161 -1.892313 -0.680908
       Atomic Center   18 is at  -1.563383  0.027825 -1.590449
       Atomic Center   19 is at  -1.061520 -0.638110 -0.905812
       Atomic Center   20 is at  -0.866259 -1.561087 -1.440822
       Atomic Center   21 is at  -1.947729 -0.875755  0.215731
       Atomic Center   22 is at  -1.547774 -1.054290  1.107527
      ESP Fit Center   23 is at  -5.846001 -1.644848  2.554515
      ESP Fit Center   24 is at  -5.733462 -2.064848  2.554515
      ESP Fit Center   25 is at  -5.426001 -2.372310  2.554515
      ESP Fit Center   26 is at  -6.016007 -1.019479  2.287532
      ESP Fit Center   27 is at  -6.173713 -1.426565  2.287532
      ESP Fit Center   28 is at  -6.173713 -1.863131  2.287532
      ESP Fit Center   29 is at  -6.016007 -2.270218  2.287532
      ESP Fit Center   30 is at  -5.721894 -2.592844  2.287532
      ESP Fit Center   31 is at  -5.331096 -2.787439  2.287532
      ESP Fit Center   32 is at  -4.896392 -2.827720  2.287532
      ESP Fit Center   33 is at  -6.072535 -0.655249  1.939592
      ESP Fit Center   34 is at  -6.316841 -1.013581  1.939592
      ESP Fit Center   35 is at  -6.444673 -1.428003  1.939592
      ESP Fit Center   36 is at  -6.444673 -1.861693  1.939592
      ESP Fit Center   37 is at  -6.316841 -2.276115  1.939592
      ESP Fit Center   38 is at  -6.072535 -2.634447  1.939592
      ESP Fit Center   39 is at  -5.733462 -2.904848  1.939592
      ESP Fit Center   40 is at  -5.329752 -3.063293  1.939592
      ESP Fit Center   41 is at  -4.897274 -3.095703  1.939592
      ESP Fit Center   42 is at  -6.153462 -0.497387  1.534408
      ESP Fit Center   43 is at  -6.411348 -0.833470  1.534408
      ESP Fit Center   44 is at  -6.573462 -1.224848  1.534408
      ESP Fit Center   45 is at  -6.628756 -1.644848  1.534408
      ESP Fit Center   46 is at  -6.573462 -2.064848  1.534408
      ESP Fit Center   47 is at  -6.411348 -2.456226  1.534408
      ESP Fit Center   48 is at  -6.153462 -2.792310  1.534408
      ESP Fit Center   49 is at  -5.817379 -3.050196  1.534408
      ESP Fit Center   50 is at  -5.426001 -3.212310  1.534408
      ESP Fit Center   51 is at  -5.006001 -3.267604  1.534408
      ESP Fit Center   52 is at  -4.586001 -3.212310  1.534408
      ESP Fit Center   53 is at  -6.076873 -0.350386  1.099592
      ESP Fit Center   54 is at  -6.365149 -0.657369  1.099592
      ESP Fit Center   55 is at  -6.568025 -1.026399  1.099592
      ESP Fit Center   56 is at  -6.672754 -1.434288  1.099592
      ESP Fit Center   57 is at  -6.672754 -1.855408  1.099592
      ESP Fit Center   58 is at  -6.568025 -2.263297  1.099592
      ESP Fit Center   59 is at  -6.365149 -2.632327  1.099592
      ESP Fit Center   60 is at  -6.076873 -2.939310  1.099592
      ESP Fit Center   61 is at  -5.721310 -3.164958  1.099592
      ESP Fit Center   62 is at  -5.320802 -3.295091  1.099592
      ESP Fit Center   63 is at  -4.900513 -3.321533  1.099592
      ESP Fit Center   64 is at  -4.486852 -3.242623  1.099592
      ESP Fit Center   65 is at  -6.153462 -0.497387  0.664776
      ESP Fit Center   66 is at  -6.411348 -0.833470  0.664776
      ESP Fit Center   67 is at  -6.573462 -1.224848  0.664776
      ESP Fit Center   68 is at  -6.628756 -1.644848  0.664776
      ESP Fit Center   69 is at  -6.573462 -2.064848  0.664776
      ESP Fit Center   70 is at  -6.411348 -2.456226  0.664776
      ESP Fit Center   71 is at  -6.153462 -2.792310  0.664776
      ESP Fit Center   72 is at  -5.817379 -3.050196  0.664776
      ESP Fit Center   73 is at  -5.426001 -3.212310  0.664776
      ESP Fit Center   74 is at  -5.006001 -3.267604  0.664776
      ESP Fit Center   75 is at  -4.586001 -3.212310  0.664776
      ESP Fit Center   76 is at  -5.733462 -0.384848  0.259592
      ESP Fit Center   77 is at  -6.072535 -0.655249  0.259592
      ESP Fit Center   78 is at  -6.316841 -1.013581  0.259592
      ESP Fit Center   79 is at  -6.444673 -1.428003  0.259592
      ESP Fit Center   80 is at  -6.444673 -1.861693  0.259592
      ESP Fit Center   81 is at  -6.316841 -2.276115  0.259592
      ESP Fit Center   82 is at  -6.072535 -2.634447  0.259592
      ESP Fit Center   83 is at  -5.733462 -2.904848  0.259592
      ESP Fit Center   84 is at  -5.329752 -3.063293  0.259592
      ESP Fit Center   85 is at  -4.897274 -3.095703  0.259592
      ESP Fit Center   86 is at  -4.474458 -2.999197  0.259592
      ESP Fit Center   87 is at  -5.721894 -0.696852 -0.088347
      ESP Fit Center   88 is at  -6.016007 -1.019479 -0.088347
      ESP Fit Center   89 is at  -6.173713 -1.426565 -0.088347
      ESP Fit Center   90 is at  -6.173713 -1.863131 -0.088347
      ESP Fit Center   91 is at  -6.016007 -2.270218 -0.088347
      ESP Fit Center   92 is at  -5.721894 -2.592844 -0.088347
      ESP Fit Center   93 is at  -5.331096 -2.787439 -0.088347
      ESP Fit Center   94 is at  -4.896392 -2.827720 -0.088347
      ESP Fit Center   95 is at  -4.476491 -2.708248 -0.088347
      ESP Fit Center   96 is at  -5.733462 -1.224848 -0.355331
      ESP Fit Center   97 is at  -5.846001 -1.644848 -0.355331
      ESP Fit Center   98 is at  -5.733462 -2.064848 -0.355331
      ESP Fit Center   99 is at  -5.426001 -2.372310 -0.355331
      ESP Fit Center  100 is at  -5.006001 -2.484848 -0.355331
      ESP Fit Center  101 is at  -4.288109 -0.780957  3.398179
      ESP Fit Center  102 is at  -4.492954 -1.135759  3.398179
      ESP Fit Center  103 is at  -4.779232 -0.733942  3.278677
      ESP Fit Center  104 is at  -4.886899 -1.135759  3.278677
      ESP Fit Center  105 is at  -4.779232 -1.537577  3.278677
      ESP Fit Center  106 is at  -3.221064 -0.349760  3.084616
      ESP Fit Center  107 is at  -5.230096 -0.921379  3.084616
      ESP Fit Center  108 is at  -5.230096 -1.350139  3.084616
      ESP Fit Center  109 is at  -5.075210 -1.749946  3.084616
      ESP Fit Center  110 is at  -2.834066 -0.332948  2.823454
      ESP Fit Center  111 is at  -5.508038 -0.717408  2.823454
      ESP Fit Center  112 is at  -5.568188 -1.135759  2.823454
      ESP Fit Center  113 is at  -5.508038 -1.554111  2.823454
      ESP Fit Center  114 is at  -5.332462 -1.938570  2.823454
      ESP Fit Center  115 is at  -5.055682 -2.257990  2.823454
      ESP Fit Center  116 is at  -2.537181 -0.324312  2.505228
      ESP Fit Center  117 is at  -2.776300  0.022110  2.505228
      ESP Fit Center  118 is at  -5.778612 -0.717893  2.505228
      ESP Fit Center  119 is at  -5.829350 -1.135759  2.505228
      ESP Fit Center  120 is at  -5.075154 -2.572760  2.505228
      ESP Fit Center  121 is at  -2.538726  0.038368  2.142165
      ESP Fit Center  122 is at  -4.083264 -3.235759  1.338530
      ESP Fit Center  123 is at  -5.884111 -0.136207  0.928840
      ESP Fit Center  124 is at  -4.187583 -3.192765  0.928840
      ESP Fit Center  125 is at  -3.771376 -3.171657  0.928840
      ESP Fit Center  126 is at  -3.367937 -3.067199  0.928840
      ESP Fit Center  127 is at  -2.993784 -2.883669  0.928840
      ESP Fit Center  128 is at  -5.491802  0.198479  0.534895
      ESP Fit Center  129 is at  -5.745693 -0.135509  0.534895
      ESP Fit Center  130 is at  -3.978226 -3.073061  0.534895
      ESP Fit Center  131 is at  -3.564220 -3.005188  0.534895
      ESP Fit Center  132 is at  -5.075154  0.301242  0.171833
      ESP Fit Center  133 is at  -5.390228  0.022110  0.171833
      ESP Fit Center  134 is at  -5.629346 -0.324312  0.171833
      ESP Fit Center  135 is at  -4.293731 -2.869114  0.171833
      ESP Fit Center  136 is at  -3.537963 -1.701491  3.765502
      ESP Fit Center  137 is at  -3.103147 -1.701491  3.708258
      ESP Fit Center  138 is at  -3.320555 -1.324929  3.708258
      ESP Fit Center  139 is at  -3.755371 -1.324929  3.708258
      ESP Fit Center  140 is at  -3.972779 -1.701491  3.708258
      ESP Fit Center  141 is at  -3.755371 -2.078053  3.708258
      ESP Fit Center  142 is at  -3.320555 -2.078053  3.708258
      ESP Fit Center  143 is at  -2.697963 -1.701491  3.540425
      ESP Fit Center  144 is at  -2.810502 -1.281491  3.540425
      ESP Fit Center  145 is at  -3.117963 -0.974030  3.540425
      ESP Fit Center  146 is at  -3.537963 -0.861491  3.540425
      ESP Fit Center  147 is at  -3.957963 -0.974030  3.540425
      ESP Fit Center  148 is at  -4.265424 -1.281491  3.540425
      ESP Fit Center  149 is at  -4.377963 -1.701491  3.540425
      ESP Fit Center  150 is at  -4.265424 -2.121491  3.540425
      ESP Fit Center  151 is at  -3.957963 -2.428952  3.540425
      ESP Fit Center  152 is at  -3.537963 -2.541491  3.540425
      ESP Fit Center  153 is at  -3.117963 -2.428952  3.540425
      ESP Fit Center  154 is at  -2.810502 -2.121491  3.540425
      ESP Fit Center  155 is at  -2.350024 -1.701491  3.273442
      ESP Fit Center  156 is at  -2.430242 -1.272358  3.273442
      ESP Fit Center  157 is at  -2.660065 -0.901182  3.273442
      ESP Fit Center  158 is at  -3.008453 -0.638091  3.273442
      ESP Fit Center  159 is at  -3.428354 -0.518619  3.273442
      ESP Fit Center  160 is at  -4.705675 -1.919774  3.273442
      ESP Fit Center  161 is at  -4.547969 -2.326861  3.273442
      ESP Fit Center  162 is at  -4.253856 -2.649487  3.273442
      ESP Fit Center  163 is at  -3.863058 -2.844082  3.273442
      ESP Fit Center  164 is at  -3.428354 -2.884363  3.273442
      ESP Fit Center  165 is at  -3.008453 -2.764891  3.273442
      ESP Fit Center  166 is at  -2.660065 -2.501801  3.273442
      ESP Fit Center  167 is at  -2.430242 -2.130624  3.273442
      ESP Fit Center  168 is at  -2.083040 -1.701491  2.925502
      ESP Fit Center  169 is at  -2.147678 -1.272645  2.925502
      ESP Fit Center  170 is at  -2.335849 -0.881904  2.925502
      ESP Fit Center  171 is at  -2.630833 -0.563987  2.925502
      ESP Fit Center  172 is at  -4.848803 -2.332758  2.925502
      ESP Fit Center  173 is at  -4.604497 -2.691090  2.925502
      ESP Fit Center  174 is at  -4.265424 -2.961491  2.925502
      ESP Fit Center  175 is at  -3.861714 -3.119936  2.925502
      ESP Fit Center  176 is at  -3.429236 -3.152346  2.925502
      ESP Fit Center  177 is at  -3.006420 -3.055840  2.925502
      ESP Fit Center  178 is at  -2.630833 -2.838995  2.925502
      ESP Fit Center  179 is at  -2.335849 -2.521078  2.925502
      ESP Fit Center  180 is at  -2.147678 -2.130337  2.925502
      ESP Fit Center  181 is at  -2.390502 -0.554030  2.520318
      ESP Fit Center  182 is at  -4.685424 -2.848952  2.520318
      ESP Fit Center  183 is at  -4.349341 -3.106839  2.520318
      ESP Fit Center  184 is at  -3.957963 -3.268952  2.520318
      ESP Fit Center  185 is at  -3.537963 -3.324247  2.520318
      ESP Fit Center  186 is at  -3.117963 -3.268952  2.520318
      ESP Fit Center  187 is at  -2.726585 -3.106839  2.520318
      ESP Fit Center  188 is at  -2.390502 -2.848952  2.520318
      ESP Fit Center  189 is at  -2.132616 -2.512869  2.520318
      ESP Fit Center  190 is at  -1.970502 -2.121491  2.520318
      ESP Fit Center  191 is at  -4.253272 -3.221601  2.085502
      ESP Fit Center  192 is at  -3.852764 -3.351734  2.085502
      ESP Fit Center  193 is at  -3.432475 -3.378176  2.085502
      ESP Fit Center  194 is at  -3.018814 -3.299266  2.085502
      ESP Fit Center  195 is at  -2.637774 -3.119962  2.085502
      ESP Fit Center  196 is at  -2.313296 -2.851530  2.085502
      ESP Fit Center  197 is at  -2.065768 -2.510837  2.085502
      ESP Fit Center  198 is at  -3.957963 -3.268952  1.650686
      ESP Fit Center  199 is at  -3.537963 -3.324247  1.650686
      ESP Fit Center  200 is at  -3.117963 -3.268952  1.650686
      ESP Fit Center  201 is at  -2.726585 -3.106839  1.650686
      ESP Fit Center  202 is at  -2.390502 -2.848952  1.650686
      ESP Fit Center  203 is at  -3.429236 -3.152346  1.245502
      ESP Fit Center  204 is at  -3.006420 -3.055840  1.245502
      ESP Fit Center  205 is at  -2.630833 -2.838995  1.245502
      ESP Fit Center  206 is at  -4.326902 -0.164284  3.436551
      ESP Fit Center  207 is at  -3.892086 -0.164284  3.379307
      ESP Fit Center  208 is at  -4.109494  0.212278  3.379307
      ESP Fit Center  209 is at  -4.544310  0.212278  3.379307
      ESP Fit Center  210 is at  -4.761718 -0.164284  3.379307
      ESP Fit Center  211 is at  -4.544310 -0.540846  3.379307
      ESP Fit Center  212 is at  -4.109494 -0.540846  3.379307
      ESP Fit Center  213 is at  -3.486902 -0.164284  3.211474
      ESP Fit Center  214 is at  -3.599441  0.255716  3.211474
      ESP Fit Center  215 is at  -3.906902  0.563177  3.211474
      ESP Fit Center  216 is at  -4.326902  0.675716  3.211474
      ESP Fit Center  217 is at  -4.746902  0.563177  3.211474
      ESP Fit Center  218 is at  -5.054363  0.255716  3.211474
      ESP Fit Center  219 is at  -5.166902 -0.164284  3.211474
      ESP Fit Center  220 is at  -5.054363 -0.584284  3.211474
      ESP Fit Center  221 is at  -3.138963 -0.164284  2.944491
      ESP Fit Center  222 is at  -3.219181  0.264849  2.944491
      ESP Fit Center  223 is at  -3.449004  0.636025  2.944491
      ESP Fit Center  224 is at  -3.797392  0.899116  2.944491
      ESP Fit Center  225 is at  -4.217293  1.018588  2.944491
      ESP Fit Center  226 is at  -4.651997  0.978306  2.944491
      ESP Fit Center  227 is at  -5.042795  0.783712  2.944491
      ESP Fit Center  228 is at  -5.336908  0.461085  2.944491
      ESP Fit Center  229 is at  -5.494614  0.053999  2.944491
      ESP Fit Center  230 is at  -5.494614 -0.382567  2.944491
      ESP Fit Center  231 is at  -2.936617  0.264562  2.596551
      ESP Fit Center  232 is at  -3.124788  0.655303  2.596551
      ESP Fit Center  233 is at  -3.419772  0.973220  2.596551
      ESP Fit Center  234 is at  -3.795359  1.190065  2.596551
      ESP Fit Center  235 is at  -4.218175  1.286570  2.596551
      ESP Fit Center  236 is at  -4.650653  1.254161  2.596551
      ESP Fit Center  237 is at  -5.054363  1.095716  2.596551
      ESP Fit Center  238 is at  -5.393436  0.825315  2.596551
      ESP Fit Center  239 is at  -5.637742  0.466983  2.596551
      ESP Fit Center  240 is at  -5.765574  0.052561  2.596551
      ESP Fit Center  241 is at  -5.765574 -0.381129  2.596551
      ESP Fit Center  242 is at  -2.759441  0.255716  2.191367
      ESP Fit Center  243 is at  -2.921555  0.647094  2.191367
      ESP Fit Center  244 is at  -3.179441  0.983177  2.191367
      ESP Fit Center  245 is at  -3.515524  1.241063  2.191367
      ESP Fit Center  246 is at  -3.906902  1.403177  2.191367
      ESP Fit Center  247 is at  -4.326902  1.458471  2.191367
      ESP Fit Center  248 is at  -4.746902  1.403177  2.191367
      ESP Fit Center  249 is at  -5.138280  1.241063  2.191367
      ESP Fit Center  250 is at  -5.474363  0.983177  2.191367
      ESP Fit Center  251 is at  -5.732249  0.647094  2.191367
      ESP Fit Center  252 is at  -5.894363  0.255716  2.191367
      ESP Fit Center  253 is at  -5.949657 -0.164284  2.191367
      ESP Fit Center  254 is at  -2.854707  0.645062  1.756551
      ESP Fit Center  255 is at  -3.102235  0.985755  1.756551
      ESP Fit Center  256 is at  -3.426713  1.254187  1.756551
      ESP Fit Center  257 is at  -3.807753  1.433491  1.756551
      ESP Fit Center  258 is at  -4.221414  1.512401  1.756551
      ESP Fit Center  259 is at  -4.641703  1.485958  1.756551
      ESP Fit Center  260 is at  -5.042211  1.355825  1.756551
      ESP Fit Center  261 is at  -5.397774  1.130178  1.756551
      ESP Fit Center  262 is at  -5.686051  0.823195  1.756551
      ESP Fit Center  263 is at  -5.888926  0.454165  1.756551
      ESP Fit Center  264 is at  -5.993655  0.046276  1.756551
      ESP Fit Center  265 is at  -3.179441  0.983177  1.321735
      ESP Fit Center  266 is at  -3.515524  1.241063  1.321735
      ESP Fit Center  267 is at  -3.906902  1.403177  1.321735
      ESP Fit Center  268 is at  -4.326902  1.458471  1.321735
      ESP Fit Center  269 is at  -4.746902  1.403177  1.321735
      ESP Fit Center  270 is at  -5.138280  1.241063  1.321735
      ESP Fit Center  271 is at  -5.474363  0.983177  1.321735
      ESP Fit Center  272 is at  -5.732249  0.647094  1.321735
      ESP Fit Center  273 is at  -5.894363  0.255716  1.321735
      ESP Fit Center  274 is at  -5.949657 -0.164284  1.321735
      ESP Fit Center  275 is at  -3.795359  1.190065  0.916551
      ESP Fit Center  276 is at  -4.218175  1.286570  0.916551
      ESP Fit Center  277 is at  -4.650653  1.254161  0.916551
      ESP Fit Center  278 is at  -5.054363  1.095716  0.916551
      ESP Fit Center  279 is at  -5.393436  0.825315  0.916551
      ESP Fit Center  280 is at  -5.637742  0.466983  0.916551
      ESP Fit Center  281 is at  -5.765574  0.052561  0.916551
      ESP Fit Center  282 is at  -4.217293  1.018588  0.568612
      ESP Fit Center  283 is at  -4.651997  0.978306  0.568612
      ESP Fit Center  284 is at  -5.042795  0.783712  0.568612
      ESP Fit Center  285 is at  -5.336908  0.461085  0.568612
      ESP Fit Center  286 is at  -3.187805  1.004765  0.867404
      ESP Fit Center  287 is at  -2.773799 -2.801966  0.867404
      ESP Fit Center  288 is at  -2.980955  1.103361  0.473459
      ESP Fit Center  289 is at  -3.397162  1.124468  0.473459
      ESP Fit Center  290 is at  -3.809099  1.061362  0.473459
      ESP Fit Center  291 is at  -4.199900  0.916625  0.473459
      ESP Fit Center  292 is at  -3.397162 -2.989543  0.473459
      ESP Fit Center  293 is at  -2.980955 -2.968435  0.473459
      ESP Fit Center  294 is at  -2.577516 -2.863977  0.473459
      ESP Fit Center  295 is at  -3.292843  1.167463  0.063769
      ESP Fit Center  296 is at  -3.702533  1.127112  0.063769
      ESP Fit Center  297 is at  -4.096478  1.007610  0.063769
      ESP Fit Center  298 is at  -4.459540  0.813549  0.063769
      ESP Fit Center  299 is at  -4.777767  0.552387  0.063769
      ESP Fit Center  300 is at  -4.096478 -2.872684  0.063769
      ESP Fit Center  301 is at  -3.702533 -2.992186  0.063769
      ESP Fit Center  302 is at  -3.292843 -3.032537  0.063769
      ESP Fit Center  303 is at  -2.883153 -2.992186  0.063769
      ESP Fit Center  304 is at  -2.980955  1.103361 -0.345921
      ESP Fit Center  305 is at  -3.397162  1.124468 -0.345921
      ESP Fit Center  306 is at  -3.809099  1.061362 -0.345921
      ESP Fit Center  307 is at  -4.553566 -2.561258 -0.345921
      ESP Fit Center  308 is at  -4.199900 -2.781699 -0.345921
      ESP Fit Center  309 is at  -3.809099 -2.926436 -0.345921
      ESP Fit Center  310 is at  -3.397162 -2.989543 -0.345921
      ESP Fit Center  311 is at  -2.980955 -2.968435 -0.345921
      ESP Fit Center  312 is at  -2.577516 -2.863977 -0.345921
      ESP Fit Center  313 is at  -2.773799  0.936892 -0.739866
      ESP Fit Center  314 is at  -4.010965 -2.734889 -0.739866
      ESP Fit Center  315 is at  -3.606724 -2.847126 -0.739866
      ESP Fit Center  316 is at  -3.187805 -2.869839 -0.739866
      ESP Fit Center  317 is at  -2.773799 -2.801966 -0.739866
      ESP Fit Center  318 is at  -3.082375 -2.665892 -1.102928
      ESP Fit Center  319 is at  -2.673672 -2.565156 -1.102928
      ESP Fit Center  320 is at  -4.907081  0.510325 -0.023143
      ESP Fit Center  321 is at  -5.198344  0.200160 -0.023143
      ESP Fit Center  322 is at  -5.403323 -0.172694 -0.023143
      ESP Fit Center  323 is at  -3.825111  1.066519 -0.397470
      ESP Fit Center  324 is at  -4.239906  1.019782 -0.397470
      ESP Fit Center  325 is at  -4.633901  0.881918 -0.397470
      ESP Fit Center  326 is at  -4.987340  0.659837 -0.397470
      ESP Fit Center  327 is at  -5.282500  0.364677 -0.397470
      ESP Fit Center  328 is at  -5.504581  0.011238 -0.397470
      ESP Fit Center  329 is at  -5.642446 -0.382757 -0.397470
      ESP Fit Center  330 is at  -5.689182 -0.797552 -0.397470
      ESP Fit Center  331 is at  -5.642446 -1.212347 -0.397470
      ESP Fit Center  332 is at  -3.303628  1.080660 -0.798267
      ESP Fit Center  333 is at  -3.719580  1.148852 -0.798267
      ESP Fit Center  334 is at  -4.140467  1.126032 -0.798267
      ESP Fit Center  335 is at  -4.546608  1.013268 -0.798267
      ESP Fit Center  336 is at  -4.919012  0.815831 -0.798267
      ESP Fit Center  337 is at  -5.240267  0.542955 -0.798267
      ESP Fit Center  338 is at  -5.495351  0.207398 -0.798267
      ESP Fit Center  339 is at  -5.672336 -0.175150 -0.798267
      ESP Fit Center  340 is at  -5.762947 -0.586800 -0.798267
      ESP Fit Center  341 is at  -5.762947 -1.008305 -0.798267
      ESP Fit Center  342 is at  -5.672336 -1.419955 -0.798267
      ESP Fit Center  343 is at  -5.495351 -1.802502 -0.798267
      ESP Fit Center  344 is at  -5.240267 -2.138059 -0.798267
      ESP Fit Center  345 is at  -4.919012 -2.410936 -0.798267
      ESP Fit Center  346 is at  -4.546608 -2.608372 -0.798267
      ESP Fit Center  347 is at  -4.140467 -2.721136 -0.798267
      ESP Fit Center  348 is at  -3.303628  1.080660 -1.208019
      ESP Fit Center  349 is at  -3.719580  1.148852 -1.208019
      ESP Fit Center  350 is at  -4.140467  1.126032 -1.208019
      ESP Fit Center  351 is at  -4.546608  1.013268 -1.208019
      ESP Fit Center  352 is at  -4.919012  0.815831 -1.208019
      ESP Fit Center  353 is at  -5.240267  0.542955 -1.208019
      ESP Fit Center  354 is at  -5.495351  0.207398 -1.208019
      ESP Fit Center  355 is at  -5.672336 -0.175150 -1.208019
      ESP Fit Center  356 is at  -5.762947 -0.586800 -1.208019
      ESP Fit Center  357 is at  -5.762947 -1.008305 -1.208019
      ESP Fit Center  358 is at  -5.672336 -1.419955 -1.208019
      ESP Fit Center  359 is at  -5.495351 -1.802502 -1.208019
      ESP Fit Center  360 is at  -5.240267 -2.138059 -1.208019
      ESP Fit Center  361 is at  -4.919012 -2.410936 -1.208019
      ESP Fit Center  362 is at  -4.546608 -2.608372 -1.208019
      ESP Fit Center  363 is at  -4.140467 -2.721136 -1.208019
      ESP Fit Center  364 is at  -3.719580 -2.743956 -1.208019
      ESP Fit Center  365 is at  -3.303628 -2.675764 -1.208019
      ESP Fit Center  366 is at  -3.016321  0.881918 -1.608816
      ESP Fit Center  367 is at  -3.410316  1.019782 -1.608816
      ESP Fit Center  368 is at  -3.825111  1.066519 -1.608816
      ESP Fit Center  369 is at  -4.239906  1.019782 -1.608816
      ESP Fit Center  370 is at  -4.633901  0.881918 -1.608816
      ESP Fit Center  371 is at  -4.987340  0.659837 -1.608816
      ESP Fit Center  372 is at  -5.282500  0.364677 -1.608816
      ESP Fit Center  373 is at  -5.504581  0.011238 -1.608816
      ESP Fit Center  374 is at  -5.642446 -0.382757 -1.608816
      ESP Fit Center  375 is at  -5.689182 -0.797552 -1.608816
      ESP Fit Center  376 is at  -5.642446 -1.212347 -1.608816
      ESP Fit Center  377 is at  -5.504581 -1.606342 -1.608816
      ESP Fit Center  378 is at  -5.282500 -1.959781 -1.608816
      ESP Fit Center  379 is at  -4.987340 -2.254941 -1.608816
      ESP Fit Center  380 is at  -4.633901 -2.477022 -1.608816
      ESP Fit Center  381 is at  -4.239906 -2.614887 -1.608816
      ESP Fit Center  382 is at  -3.825111 -2.661623 -1.608816
      ESP Fit Center  383 is at  -3.410316 -2.614887 -1.608816
      ESP Fit Center  384 is at  -3.016321 -2.477022 -1.608816
      ESP Fit Center  385 is at  -2.662882 -2.254941 -1.608816
      ESP Fit Center  386 is at  -3.300582  0.816781 -1.983143
      ESP Fit Center  387 is at  -3.718530  0.896508 -1.983143
      ESP Fit Center  388 is at  -4.143174  0.869792 -1.983143
      ESP Fit Center  389 is at  -4.547833  0.738310 -1.983143
      ESP Fit Center  390 is at  -4.907081  0.510325 -1.983143
      ESP Fit Center  391 is at  -5.198344  0.200160 -1.983143
      ESP Fit Center  392 is at  -5.403323 -0.172694 -1.983143
      ESP Fit Center  393 is at  -5.509136 -0.584810 -1.983143
      ESP Fit Center  394 is at  -5.509136 -1.010294 -1.983143
      ESP Fit Center  395 is at  -5.403323 -1.422410 -1.983143
      ESP Fit Center  396 is at  -5.198344 -1.795265 -1.983143
      ESP Fit Center  397 is at  -4.907081 -2.105429 -1.983143
      ESP Fit Center  398 is at  -4.547833 -2.333414 -1.983143
      ESP Fit Center  399 is at  -4.143174 -2.464896 -1.983143
      ESP Fit Center  400 is at  -3.718530 -2.491612 -1.983143
      ESP Fit Center  401 is at  -3.300582 -2.411885 -1.983143
      ESP Fit Center  402 is at  -2.915593 -2.230723 -1.983143
      ESP Fit Center  403 is at  -2.587752 -1.959509 -1.983143
      ESP Fit Center  404 is at  -3.220032  0.527385 -2.314639
      ESP Fit Center  405 is at  -3.617820  0.644186 -2.314639
      ESP Fit Center  406 is at  -4.032402  0.644186 -2.314639
      ESP Fit Center  407 is at  -4.430189  0.527385 -2.314639
      ESP Fit Center  408 is at  -4.778957  0.303245 -2.314639
      ESP Fit Center  409 is at  -5.050450 -0.010074 -2.314639
      ESP Fit Center  410 is at  -5.222674 -0.387191 -2.314639
      ESP Fit Center  411 is at  -5.281675 -0.797552 -2.314639
      ESP Fit Center  412 is at  -5.222674 -1.207914 -2.314639
      ESP Fit Center  413 is at  -5.050450 -1.585030 -2.314639
      ESP Fit Center  414 is at  -4.778957 -1.898350 -2.314639
      ESP Fit Center  415 is at  -4.430189 -2.122489 -2.314639
      ESP Fit Center  416 is at  -4.032402 -2.239290 -2.314639
      ESP Fit Center  417 is at  -3.617820 -2.239290 -2.314639
      ESP Fit Center  418 is at  -3.220032 -2.122489 -2.314639
      ESP Fit Center  419 is at  -2.871264 -1.898350 -2.314639
      ESP Fit Center  420 is at  -2.599771 -1.585030 -2.314639
      ESP Fit Center  421 is at  -2.673052 -0.797552 -2.588816
      ESP Fit Center  422 is at  -2.973729 -0.021415 -2.588816
      ESP Fit Center  423 is at  -3.311594  0.233729 -2.588816
      ESP Fit Center  424 is at  -3.718812  0.349592 -2.588816
      ESP Fit Center  425 is at  -4.140387  0.310528 -2.588816
      ESP Fit Center  426 is at  -4.519382  0.121811 -2.588816
      ESP Fit Center  427 is at  -4.804611 -0.191071 -2.588816
      ESP Fit Center  428 is at  -4.957554 -0.585862 -2.588816
      ESP Fit Center  429 is at  -4.957554 -1.009242 -2.588816
      ESP Fit Center  430 is at  -4.804611 -1.404033 -2.588816
      ESP Fit Center  431 is at  -4.519382 -1.716915 -2.588816
      ESP Fit Center  432 is at  -4.140387 -1.905632 -2.588816
      ESP Fit Center  433 is at  -3.718812 -1.944697 -2.588816
      ESP Fit Center  434 is at  -3.311594 -1.828833 -2.588816
      ESP Fit Center  435 is at  -2.973729 -1.573689 -2.588816
      ESP Fit Center  436 is at  -2.750848 -1.213724 -2.588816
      ESP Fit Center  437 is at  -3.027907 -0.797552 -2.793692
      ESP Fit Center  438 is at  -3.134712 -0.398950 -2.793692
      ESP Fit Center  439 is at  -3.426509 -0.107153 -2.793692
      ESP Fit Center  440 is at  -3.825111 -0.000348 -2.793692
      ESP Fit Center  441 is at  -4.223713 -0.107153 -2.793692
      ESP Fit Center  442 is at  -4.515510 -0.398950 -2.793692
      ESP Fit Center  443 is at  -4.622315 -0.797552 -2.793692
      ESP Fit Center  444 is at  -4.515510 -1.196154 -2.793692
      ESP Fit Center  445 is at  -4.223713 -1.487951 -2.793692
      ESP Fit Center  446 is at  -3.825111 -1.594756 -2.793692
      ESP Fit Center  447 is at  -3.426509 -1.487951 -2.793692
      ESP Fit Center  448 is at  -3.134712 -1.196154 -2.793692
      ESP Fit Center  449 is at  -3.417604 -0.797552 -2.920312
      ESP Fit Center  450 is at  -3.621357 -0.444641 -2.920312
      ESP Fit Center  451 is at  -4.028864 -0.444641 -2.920312
      ESP Fit Center  452 is at  -4.232618 -0.797552 -2.920312
      ESP Fit Center  453 is at  -4.028864 -1.150463 -2.920312
      ESP Fit Center  454 is at  -3.621357 -1.150463 -2.920312
      ESP Fit Center  455 is at  -3.825111 -0.797552 -2.963143
      ESP Fit Center  456 is at   3.669012  1.338864  2.436977
      ESP Fit Center  457 is at   4.103828  1.338864  2.379733
      ESP Fit Center  458 is at   3.886420  1.715426  2.379733
      ESP Fit Center  459 is at   3.451604  1.715426  2.379733
      ESP Fit Center  460 is at   3.886420  0.962302  2.379733
      ESP Fit Center  461 is at   4.509012  1.338864  2.211900
      ESP Fit Center  462 is at   4.396473  1.758864  2.211900
      ESP Fit Center  463 is at   4.089012  2.066325  2.211900
      ESP Fit Center  464 is at   3.669012  2.178864  2.211900
      ESP Fit Center  465 is at   3.249012  2.066325  2.211900
      ESP Fit Center  466 is at   4.089012  0.611403  2.211900
      ESP Fit Center  467 is at   4.396473  0.918864  2.211900
      ESP Fit Center  468 is at   4.856951  1.338864  1.944917
      ESP Fit Center  469 is at   4.776732  1.767997  1.944917
      ESP Fit Center  470 is at   4.546910  2.139174  1.944917
      ESP Fit Center  471 is at   4.198522  2.402264  1.944917
      ESP Fit Center  472 is at   3.778621  2.521736  1.944917
      ESP Fit Center  473 is at   3.343917  2.481455  1.944917
      ESP Fit Center  474 is at   4.198522  0.275464  1.944917
      ESP Fit Center  475 is at   4.546910  0.538554  1.944917
      ESP Fit Center  476 is at   4.776732  0.909731  1.944917
      ESP Fit Center  477 is at   5.123935  1.338864  1.596977
      ESP Fit Center  478 is at   5.059297  1.767710  1.596977
      ESP Fit Center  479 is at   4.871126  2.158451  1.596977
      ESP Fit Center  480 is at   4.576141  2.476368  1.596977
      ESP Fit Center  481 is at   4.200555  2.693213  1.596977
      ESP Fit Center  482 is at   3.777739  2.789719  1.596977
      ESP Fit Center  483 is at   3.345261  2.757309  1.596977
      ESP Fit Center  484 is at   4.871126  0.519277  1.596977
      ESP Fit Center  485 is at   5.059297  0.910018  1.596977
      ESP Fit Center  486 is at   5.291767  1.338864  1.191793
      ESP Fit Center  487 is at   5.236473  1.758864  1.191793
      ESP Fit Center  488 is at   5.074359  2.150242  1.191793
      ESP Fit Center  489 is at   4.816473  2.486325  1.191793
      ESP Fit Center  490 is at   4.480390  2.744211  1.191793
      ESP Fit Center  491 is at   4.089012  2.906325  1.191793
      ESP Fit Center  492 is at   3.669012  2.961619  1.191793
      ESP Fit Center  493 is at   5.074359  0.527486  1.191793
      ESP Fit Center  494 is at   5.236473  0.918864  1.191793
      ESP Fit Center  495 is at   5.349012  1.338864  0.756977
      ESP Fit Center  496 is at   5.296232  1.756663  0.756977
      ESP Fit Center  497 is at   5.141207  2.148210  0.756977
[...]
   D38       -2.37857   0.00000   0.00000   0.00007   0.00007  -2.37850
   D39       -0.32099   0.00000   0.00000   0.00008   0.00008  -0.32091
   D40        1.80930   0.00000   0.00000   0.00011   0.00011   1.80941
   D41        2.72261   0.00000   0.00000  -0.00007  -0.00007   2.72255
   D42       -0.48298   0.00000   0.00000   0.00000   0.00000  -0.48298
   D43        0.59513   0.00000   0.00000  -0.00004  -0.00004   0.59509
   D44       -2.61046   0.00000   0.00000   0.00002   0.00002  -2.61044
   D45       -1.44721   0.00000   0.00000  -0.00004  -0.00004  -1.44725
   D46        1.63039   0.00000   0.00000   0.00002   0.00002   1.63041
         Item               Value     Threshold  Converged?
 Maximum Force            0.000009     0.000450     YES
 RMS     Force            0.000002     0.000300     YES
 Maximum Displacement     0.000297     0.001800     YES
 RMS     Displacement     0.000096     0.001200     YES
 Predicted change in Energy=-1.217739D-09
 Optimization completed.
    -- Stationary point found.
                           ----------------------------
                           !   Optimized Parameters   !
                           ! (Angstroms and Degrees)  !
 --------------------------                            --------------------------
 ! Name  Definition              Value          Derivative Info.                !
 --------------------------------------------------------------------------------
 ! R1    R(1,2)                  1.0806         -DE/DX =    0.0                 !
 ! R2    R(2,3)                  1.0841         -DE/DX =    0.0                 !
 ! R3    R(2,4)                  1.0853         -DE/DX =    0.0                 !
 ! R4    R(2,5)                  1.5136         -DE/DX =    0.0                 !
 ! R5    R(5,6)                  1.1999         -DE/DX =    0.0                 !
 ! R6    R(5,21)                 1.3549         -DE/DX =    0.0                 !
 ! R7    R(7,9)                  1.073          -DE/DX =    0.0                 !
 ! R8    R(8,10)                 1.0731         -DE/DX =    0.0                 !
 ! R9    R(9,10)                 1.3837         -DE/DX =    0.0                 !
 ! R10   R(9,12)                 1.3801         -DE/DX =    0.0                 !
 ! R11   R(10,13)                1.3826         -DE/DX =    0.0                 !
 ! R12   R(11,12)                1.7406         -DE/DX =    0.0                 !
 ! R13   R(12,15)                1.3824         -DE/DX =    0.0                 !
 ! R14   R(13,14)                1.7424         -DE/DX =    0.0                 !
 ! R15   R(13,16)                1.3924         -DE/DX =    0.0                 !
 ! R16   R(15,16)                1.3893         -DE/DX =    0.0                 !
 ! R17   R(15,17)                1.0738         -DE/DX =    0.0                 !
 ! R18   R(16,19)                1.5135         -DE/DX =    0.0                 !
 ! R19   R(18,19)                1.0789         -DE/DX =    0.0                 !
 ! R20   R(19,20)                1.0846         -DE/DX =    0.0                 !
 ! R21   R(19,21)                1.449          -DE/DX =    0.0                 !
 ! R22   R(21,22)                0.9935         -DE/DX =    0.0                 !
 ! A1    A(1,2,3)              109.6337         -DE/DX =    0.0                 !
 ! A2    A(1,2,4)              108.3717         -DE/DX =    0.0                 !
 ! A3    A(1,2,5)              108.8411         -DE/DX =    0.0                 !
 ! A4    A(3,2,4)              108.3385         -DE/DX =    0.0                 !
 ! A5    A(3,2,5)              112.8095         -DE/DX =    0.0                 !
 ! A6    A(4,2,5)              108.7496         -DE/DX =    0.0                 !
 ! A7    A(2,5,6)              122.1604         -DE/DX =    0.0                 !
 ! A8    A(2,5,21)             115.4429         -DE/DX =    0.0                 !
 ! A9    A(6,5,21)             122.3713         -DE/DX =    0.0                 !
 ! A10   A(7,9,10)             120.4842         -DE/DX =    0.0                 !
 ! A11   A(7,9,12)             120.5535         -DE/DX =    0.0                 !
 ! A12   A(10,9,12)            118.962          -DE/DX =    0.0                 !
 ! A13   A(8,10,9)             120.0998         -DE/DX =    0.0                 !
 ! A14   A(8,10,13)            119.6851         -DE/DX =    0.0                 !
 ! A15   A(9,10,13)            120.2149         -DE/DX =    0.0                 !
 ! A16   A(9,12,11)            119.7431         -DE/DX =    0.0                 !
 ! A17   A(9,12,15)            120.7992         -DE/DX =    0.0                 !
 ! A18   A(11,12,15)           119.4577         -DE/DX =    0.0                 !
 ! A19   A(10,13,14)           117.93           -DE/DX =    0.0                 !
 ! A20   A(10,13,16)           121.376          -DE/DX =    0.0                 !
 ! A21   A(14,13,16)           120.6919         -DE/DX =    0.0                 !
 ! A22   A(12,15,16)           120.9664         -DE/DX =    0.0                 !
 ! A23   A(12,15,17)           119.4824         -DE/DX =    0.0                 !
 ! A24   A(16,15,17)           119.5508         -DE/DX =    0.0                 !
 ! A25   A(13,16,15)           117.6812         -DE/DX =    0.0                 !
 ! A26   A(13,16,19)           122.9941         -DE/DX =    0.0                 !
 ! A27   A(15,16,19)           119.3225         -DE/DX =    0.0                 !
 ! A28   A(16,19,18)           111.0565         -DE/DX =    0.0                 !
 ! A29   A(16,19,20)           108.9768         -DE/DX =    0.0                 !
 ! A30   A(16,19,21)           110.9625         -DE/DX =    0.0                 !
 ! A31   A(18,19,20)           107.2169         -DE/DX =    0.0                 !
 ! A32   A(18,19,21)           107.9321         -DE/DX =    0.0                 !
 ! A33   A(20,19,21)           110.6312         -DE/DX =    0.0                 !
 ! A34   A(5,21,19)            121.8197         -DE/DX =    0.0                 !
 ! A35   A(5,21,22)            119.5247         -DE/DX =    0.0                 !
 ! A36   A(19,21,22)           118.5549         -DE/DX =    0.0                 !
 ! D1    D(1,2,5,6)             29.9392         -DE/DX =    0.0                 !
 ! D2    D(1,2,5,21)          -151.8542         -DE/DX =    0.0                 !
 ! D3    D(3,2,5,6)            151.8537         -DE/DX =    0.0                 !
 ! D4    D(3,2,5,21)           -29.9398         -DE/DX =    0.0                 !
 ! D5    D(4,2,5,6)            -87.9339         -DE/DX =    0.0                 !
 ! D6    D(4,2,5,21)            90.2726         -DE/DX =    0.0                 !
 ! D7    D(2,5,21,19)         -177.7813         -DE/DX =    0.0                 !
 ! D8    D(2,5,21,22)            5.92           -DE/DX =    0.0                 !
 ! D9    D(6,5,21,19)            0.4211         -DE/DX =    0.0                 !
 ! D10   D(6,5,21,22)         -175.8776         -DE/DX =    0.0                 !
 ! D11   D(7,9,10,8)             0.1328         -DE/DX =    0.0                 !
 ! D12   D(7,9,10,13)          179.9524         -DE/DX =    0.0                 !
 ! D13   D(12,9,10,8)         -179.706          -DE/DX =    0.0                 !
 ! D14   D(12,9,10,13)           0.1136         -DE/DX =    0.0                 !
 ! D15   D(7,9,12,11)            0.1347         -DE/DX =    0.0                 !
 ! D16   D(7,9,12,15)         -179.8275         -DE/DX =    0.0                 !
 ! D17   D(10,9,12,11)         179.9734         -DE/DX =    0.0                 !
 ! D18   D(10,9,12,15)           0.0112         -DE/DX =    0.0                 !
 ! D19   D(8,10,13,14)           0.1716         -DE/DX =    0.0                 !
 ! D20   D(8,10,13,16)         179.6446         -DE/DX =    0.0                 !
 ! D21   D(9,10,13,14)        -179.6488         -DE/DX =    0.0                 !
 ! D22   D(9,10,13,16)          -0.1758         -DE/DX =    0.0                 !
 ! D23   D(9,12,15,16)          -0.0781         -DE/DX =    0.0                 !
 ! D24   D(9,12,15,17)         179.6924         -DE/DX =    0.0                 !
 ! D25   D(11,12,15,16)        179.9596         -DE/DX =    0.0                 !
 ! D26   D(11,12,15,17)         -0.2699         -DE/DX =    0.0                 !
 ! D27   D(10,13,16,15)          0.1075         -DE/DX =    0.0                 !
 ! D28   D(10,13,16,19)        179.5687         -DE/DX =    0.0                 !
 ! D29   D(14,13,16,15)        179.566          -DE/DX =    0.0                 !
 ! D30   D(14,13,16,19)         -0.9728         -DE/DX =    0.0                 !
 ! D31   D(12,15,16,13)          0.0188         -DE/DX =    0.0                 !
 ! D32   D(12,15,16,19)       -179.463          -DE/DX =    0.0                 !
 ! D33   D(17,15,16,13)       -179.7516         -DE/DX =    0.0                 !
 ! D34   D(17,15,16,19)          0.7667         -DE/DX =    0.0                 !
 ! D35   D(13,16,19,18)         44.2653         -DE/DX =    0.0                 !
 ! D36   D(13,16,19,20)        162.156          -DE/DX =    0.0                 !
 ! D37   D(13,16,19,21)        -75.7876         -DE/DX =    0.0                 !
 ! D38   D(15,16,19,18)       -136.2819         -DE/DX =    0.0                 !
 ! D39   D(15,16,19,20)        -18.3912         -DE/DX =    0.0                 !
 ! D40   D(15,16,19,21)        103.6652         -DE/DX =    0.0                 !
 ! D41   D(16,19,21,5)         155.9942         -DE/DX =    0.0                 !
 ! D42   D(16,19,21,22)        -27.6725         -DE/DX =    0.0                 !
 ! D43   D(18,19,21,5)          34.0983         -DE/DX =    0.0                 !
 ! D44   D(18,19,21,22)       -149.5684         -DE/DX =    0.0                 !
 ! D45   D(20,19,21,5)         -82.919          -DE/DX =    0.0                 !
 ! D46   D(20,19,21,22)         93.4144         -DE/DX =    0.0                 !
 --------------------------------------------------------------------------------
 GradGradGradGradGradGradGradGradGradGradGradGradGradGradGradGradGradGrad

                          Input orientation:                          
 ---------------------------------------------------------------------
 Center     Atomic      Atomic             Coordinates (Angstroms)
 Number     Number       Type             X           Y           Z
 ---------------------------------------------------------------------
      1          1           0        5.006001   -1.644848   -1.099592
      2          6           0        4.083264   -1.135759   -1.338530
      3          1           0        3.537963   -1.701491   -2.085502
      4          1           0        4.326902   -0.164284   -1.756551
      5          6           0        3.292843   -0.932537   -0.063769
      6          8           0        3.825111   -0.797552    1.003143
      7          1           0       -3.669012    1.338864   -0.756977
      8          1           0       -1.691189    2.809127   -0.662443
      9          6           0       -2.722699    0.955448   -0.426954
     10          6           0       -1.611605    1.778477   -0.374360
     11         17           0       -3.979856   -1.417827   -0.102732
     12          6           0       -2.595173   -0.364639   -0.045237
     13          6           0       -0.395223    1.278854    0.052686
     14         17           0        0.962402    2.369863    0.104457
     15          6           0       -1.379302   -0.863035    0.384125
     16          6           0       -0.253823   -0.050601    0.441573
     17          1           0       -1.305161   -1.892313    0.680908
     18          1           0        1.563383    0.027825    1.590449
     19          6           0        1.061520   -0.638110    0.905812
     20          1           0        0.866259   -1.561087    1.440822
     21          7           0        1.947729   -0.875755   -0.215731
     22          1           0        1.547774   -1.054290   -1.107527
 ---------------------------------------------------------------------
                    Distance matrix (angstroms):
                    1          2          3          4          5
     1  H    0.000000
     2  C    1.080605   0.000000
     3  H    1.769283   1.084146   0.000000
     4  H    1.756371   1.085295   1.758874   0.000000
     5  C    2.124906   1.513631   2.176874   2.127205   0.000000
     6  O    2.556151   2.380012   3.230989   2.875541   1.199930
     7  H    9.180184   8.158416   7.934055   8.197148   7.355761
     8  H    8.054896   7.025918   7.050872   6.801152   6.260913
     9  C    8.182101   7.178109   7.000428   7.260751   6.315310
    10  C    7.485842   6.469461   6.446413   6.399269   5.612457
    11  Cl   9.043832   8.162148   7.780067   8.562051   7.288976
    12  C    7.780003   6.846076   6.600395   7.133292   5.915368
    13  C    6.248920   5.274721   5.378128   5.258750   4.301819
    14  Cl   5.823945   4.910334   5.292009   4.604901   4.045380
    15  C    6.601874   5.734243   5.566108   6.134453   4.694079
    16  C    5.708114   4.812137   4.846564   5.082097   3.689447
    17  H    6.562178   5.803932   5.580796   6.375533   4.755771
    18  H    4.678223   4.035176   4.516870   4.344692   2.578714
    19  C    4.538072   3.796796   4.026352   4.239741   2.450628
    20  H    4.857796   4.272566   4.426362   4.914296   2.923556
    21  N    3.275018   2.426683   2.589735   2.922462   1.354861
    22  H    3.508298   2.547294   2.310012   2.989464   2.037037
                    6          7          8          9         10
     6  O    0.000000
     7  H    7.989003   0.000000
     8  H    6.797932   2.466251   0.000000
     9  C    6.927626   1.073048   2.134384   0.000000
    10  C    6.171817   2.138359   1.073110   1.383717   0.000000
    11  Cl   7.907288   2.850264   4.839258   2.705180   3.987324
    12  C    6.519706   2.135796   3.357219   1.380073   2.380898
    13  C    4.798547   3.372959   2.129007   2.398289   1.382598
    14  Cl   4.362941   4.822346   2.796897   3.982830   2.684123
    15  C    5.241506   3.375388   3.831103   2.401967   2.758052
    16  C    4.184615   3.876938   3.385693   2.803894   2.419679
    17  H    5.255666   4.253917   4.904809   3.368459   3.831736
    18  H    2.478223   5.882788   4.837706   4.827100   4.123810
    19  C    2.769897   5.389919   4.681909   4.316944   3.824177
    20  H    3.086965   5.814527   5.482977   4.764678   4.537332
    21  N    2.239717   6.061787   5.198041   5.021037   4.442856
    22  H    3.115623   5.750211   5.061124   4.768560   4.306249
                   11         12         13         14         15
    11  Cl   0.000000
    12  C    1.740649   0.000000
    13  C    4.488411   2.747806   0.000000
    14  Cl   6.230204   4.489571   1.742448   0.000000
    15  C    2.703277   1.382423   2.380326   4.001677   0.000000
    16  C    4.006107   2.411954   1.392364   2.729743   1.389263
    17  H    2.827229   2.127253   3.358415   4.862127   1.073774
    18  H    5.973631   4.485876   2.786741   2.838044   3.302763
    19  C    5.200057   3.788230   2.554344   3.114466   2.506065
    20  H    5.088017   3.952388   3.403458   4.153009   2.578067
    21  N    5.953392   4.574742   3.194341   3.406967   3.380699
    22  H    5.629961   4.332215   3.250368   3.679183   3.290802
                   16         17         18         19         20
    16  C    0.000000
    17  H    2.134127   0.000000
    18  H    2.151349   3.569697   0.000000
    19  C    1.513543   2.687896   1.078918   0.000000
    20  H    2.129472   2.324273   1.741554   1.084550   0.000000
    21  N    2.441262   3.524010   2.055837   1.449034   2.093663
    22  H    2.579313   3.469873   2.906938   2.112625   2.686148
                   21         22
    21  N    0.000000
    22  H    0.993549   0.000000
 Stoichiometry    C9H9Cl2NO
 Framework group  C1[X(C9H9Cl2NO)]
 Deg. of freedom    60
 Full point group                 C1      NOp   1
 Largest Abelian subgroup         C1      NOp   1
 Largest concise Abelian subgroup C1      NOp   1
                         Standard orientation:                         
 ---------------------------------------------------------------------
 Center     Atomic      Atomic             Coordinates (Angstroms)
 Number     Number       Type             X           Y           Z
 ---------------------------------------------------------------------
      1          1           0       -5.006001   -1.644848    1.099592
      2          6           0       -4.083264   -1.135759    1.338530
      3          1           0       -3.537963   -1.701491    2.085502
      4          1           0       -4.326902   -0.164284    1.756551
      5          6           0       -3.292843   -0.932537    0.063769
      6          8           0       -3.825111   -0.797552   -1.003143
      7          1           0        3.669012    1.338864    0.756977
      8          1           0        1.691189    2.809127    0.662443
      9          6           0        2.722699    0.955448    0.426954
     10          6           0        1.611605    1.778477    0.374360
     11         17           0        3.979856   -1.417827    0.102732
     12          6           0        2.595173   -0.364639    0.045237
     13          6           0        0.395223    1.278854   -0.052686
     14         17           0       -0.962402    2.369863   -0.104457
     15          6           0        1.379302   -0.863035   -0.384125
     16          6           0        0.253823   -0.050601   -0.441573
     17          1           0        1.305161   -1.892313   -0.680908
     18          1           0       -1.563383    0.027825   -1.590449
     19          6           0       -1.061520   -0.638110   -0.905812
     20          1           0       -0.866259   -1.561087   -1.440822
     21          7           0       -1.947729   -0.875755    0.215731
     22          1           0       -1.547774   -1.054290    1.107527
 ---------------------------------------------------------------------
 Rotational constants (GHZ):      1.0275996      0.3164095      0.2600346

 Test job not archived.
 1\1\GINC-LAC-080\FOpt\RHF\6-31G(d)\C9H9Cl2N1O1\SONGLIN3\29-Nov-2017\0\
 \#HF/6-31G* SCF=tight Test Pop=MK iop(6/33=2) iop(6/42=6) opt # iop(6/
 50=1)\\remark line goes here\\0,1\H,5.006001,-1.644848,-1.099592\C,4.0
 83264,-1.135759,-1.33853\H,3.537963,-1.701491,-2.085502\H,4.326902,-0.
 164284,-1.756551\C,3.292843,-0.932537,-0.063769\O,3.825111,-0.797552,1
 .003143\H,-3.669012,1.338864,-0.756977\H,-1.691189,2.809127,-0.662443\
 C,-2.722699,0.955448,-0.426954\C,-1.611605,1.778477,-0.37436\Cl,-3.979
 856,-1.417827,-0.102732\C,-2.595173,-0.364639,-0.045237\C,-0.395223,1.
 278854,0.052686\Cl,0.962402,2.369863,0.104457\C,-1.379302,-0.863035,0.
 384125\C,-0.253823,-0.050601,0.441573\H,-1.305161,-1.892313,0.680908\H
 ,1.563383,0.027825,1.590449\C,1.06152,-0.63811,0.905812\H,0.866259,-1.
 561087,1.440822\N,1.947729,-0.875755,-0.215731\H,1.547774,-1.05429,-1.
 107527\\Version=ES64L-G09RevD.01\State=1-A\HF=-1394.3494582\RMSD=8.121
 e-09\RMSF=3.349e-06\Dipole=-0.8277966,-0.0689029,-1.2034777\Quadrupole
 =-6.767895,4.7865645,1.9813305,-4.2677076,-7.7118091,0.3550964\PG=C01 
 [X(C9H9Cl2N1O1)]\\@


 OUR LITTLE SYSTEMS HAVE THEIR DAY,    
   THEY HAVE THEIR DAY AND CEASE TO BE.
   THEY ARE BUT BROKEN LIGHTS OF THEE, 
 AND THOU, OH LORD, ART MORE THAN THEY.
          -------------------          
 LET KNOWLEDGE GROW FROM MORE TO MORE, 
   BUT MORE OF REVERENCE IN US DWELL.  
   THAT MIND AND SOUL, ACCORDING WELL, 
 MAY MAKE ONE MUSIC AS BEFORE.....     
          -------------------          
                    LORD TENNYSON      
 Job cpu time:       0 days  0 hours  0 minutes 43.1 seconds.
 File lengths (MBytes):  RWF=    134 Int=      0 D2E=      0 Chk=      5 Scr=      2
 Normal termination of Gaussian 09 at Wed Nov 29 20:37:07 2017.
