 Entering Gaussian System, Link 0=g09
 Initial command:
 /opt/software/Gaussian/g09/l1.exe "/mnt/ls15/scratch/users/songlin3/Gau-20968.inp" -scrdir="/mnt/ls15/scratch/users/songlin3/"
 Entering Link 1 = /opt/software/Gaussian/g09/l1.exe PID=     20969.
  
 Copyright (c) 1988,1990,1992,1993,1995,1998,2003,2009,2013,
            Gaussian, Inc.  All Rights Reserved.
  
 This is part of the Gaussian(R) 09 program.  It is based on
 the Gaussian(R) 03 system (copyright 2003, Gaussian, Inc.),
 the Gaussian(R) 98 system (copyright 1998, Gaussian, Inc.),
 the Gaussian(R) 94 system (copyright 1995, Gaussian, Inc.),
 the Gaussian 92(TM) system (copyright 1992, Gaussian, Inc.),
 the Gaussian 90(TM) system (copyright 1990, Gaussian, Inc.),
 the Gaussian 88(TM) system (copyright 1988, Gaussian, Inc.),
 the Gaussian 86(TM) system (copyright 1986, Carnegie Mellon
 University), and the Gaussian 82(TM) system (copyright 1983,
 Carnegie Mellon University). Gaussian is a federally registered
 trademark of Gaussian, Inc.
  
 This software contains proprietary and confidential information,
 including trade secrets, belonging to Gaussian, Inc.
  
 This software is provided under written license and may be
 used, copied, transmitted, or stored only in accord with that
 written license.
  
 The following legend is applicable only to US Government
 contracts under FAR:
  
                    RESTRICTED RIGHTS LEGEND
  
 Use, reproduction and disclosure by the US Government is
 subject to restrictions as set forth in subparagraphs (a)
 and (c) of the Commercial Computer Software - Restricted
 Rights clause in FAR 52.227-19.
  
 Gaussian, Inc.
 340 Quinnipiac St., Bldg. 40, Wallingford CT 06492
  
  
 ---------------------------------------------------------------
 Warning -- This program may not be used in any manner that
 competes with the business of Gaussian, Inc. or will provide
 assistance to any competitor of Gaussian, Inc.  The licensee
 of this program is prohibited from giving any competitor of
 Gaussian, Inc. access to this program.  By using this program,
 the user acknowledges that Gaussian, Inc. is engaged in the
 business of creating and licensing software in the field of
 computational chemistry and represents and warrants to the
 licensee that it is not a competitor of Gaussian, Inc. and that
 it will not use this program in any manner prohibited above.
 ---------------------------------------------------------------
  

 Cite this work as:
 Gaussian 09, Revision D.01,
 M. J. Frisch, G. W. Trucks, H. B. Schlegel, G. E. Scuseria, 
 M. A. Robb, J. R. Cheeseman, G. Scalmani, V. Barone, B. Mennucci, 
 G. A. Petersson, H. Nakatsuji, M. Caricato, X. Li, H. P. Hratchian, 
 A. F. Izmaylov, J. Bloino, G. Zheng, J. L. Sonnenberg, M. Hada, 
 M. Ehara, K. Toyota, R. Fukuda, J. Hasegawa, M. Ishida, T. Nakajima, 
 Y. Honda, O. Kitao, H. Nakai, T. Vreven, J. A. Montgomery, Jr., 
 J. E. Peralta, F. Ogliaro, M. Bearpark, J. J. Heyd, E. Brothers, 
 K. N. Kudin, V. N. Staroverov, T. Keith, R. Kobayashi, J. Normand, 
 K. Raghavachari, A. Rendell, J. C. Burant, S. S. Iyengar, J. Tomasi, 
 M. Cossi, N. Rega, J. M. Millam, M. Klene, J. E. Knox, J. B. Cross, 
 V. Bakken, C. Adamo, J. Jaramillo, R. Gomperts, R. E. Stratmann, 
 O. Yazyev, A. J. Austin, R. Cammi, C. Pomelli, J. W. Ochterski, 
 R. L. Martin, K. Morokuma, V. G. Zakrzewski, G. A. Voth, 
 P. Salvador, J. J. Dannenberg, S. Dapprich, A. D. Daniels, 
 O. Farkas, J. B. Foresman, J. V. Ortiz, J. Cioslowski, 
 and D. J. Fox, Gaussian, Inc., Wallingford CT, 2013.
 
 ******************************************
 Gaussian 09:  ES64L-G09RevD.01 24-Apr-2013
                29-Nov-2017 
 ******************************************
 %RWF=myrwf
 %NoSave
 %chk=opt.chk
 %NprocShared=4
 Will use up to    4 processors via shared memory.
 %Mem=16GB
 ------------------------------------------------------------
 #HF/6-31G* SCF=tight Test Pop=MK iop(6/33=2) iop(6/42=6) opt
 ------------------------------------------------------------
 1/18=20,19=15,38=1/1,3;
 2/9=110,12=2,17=6,18=5,40=1/2;
 3/5=1,6=6,7=1,11=9,16=1,25=1,30=1,71=1/1,2,3;
 4//1;
 5/5=2,32=2,38=5/2;
 6/7=2,8=2,9=2,10=2,15=8,20=1,28=1,33=2,42=6/1,2;
 7//1,2,3,16;
 1/18=20,19=15/3(2);
 2/9=110/2;
 99//99;
 2/9=110/2;
 3/5=1,6=6,7=1,11=9,16=1,25=1,30=1,71=1/1,2,3;
 4/5=5,16=3,69=1/1;
 5/5=2,32=2,38=5/2;
 7//1,2,3,16;
 1/18=20,19=15/3(-5);
 2/9=110/2;
 6/7=2,8=2,9=2,10=2,15=8,19=2,20=1,28=1,33=2,42=6/1,2;
 99/9=1/99;
 ---------------------
 remark line goes here
 ---------------------
 Symbolic Z-matrix:
 Charge =  0 Multiplicity = 1
 H                     18.464   -12.847    20.722 
 C                     18.009   -11.901    21.017 
 H                     18.64    -11.076    20.688 
 H                     17.906   -11.869    22.102 
 C                     16.606   -11.735    20.382 
 O                     16.157   -12.619    19.653 
 H                     10.795   -10.437    24.173 
 H                     11.107   -12.417    22.711 
 C                     11.549   -10.421    23.399 
 C                     11.728   -11.544    22.569 
 Cl                    12.195   -7.933     24.282 
 C                     12.366   -9.289     23.227 
 C                     12.706   -11.535    21.553 
 Cl                    12.857   -12.933    20.553 
 C                     13.343   -9.275     22.211 
 C                     13.522   -10.391    21.362 
 H                     13.967   -8.403     22.092 
 H                     14.259   -10.905    19.386 
 C                     14.561   -10.307    20.247 
 H                     14.562   -9.277     19.899 
 N                     15.928   -10.614    20.666 
 H                     16.424   -9.902     21.201 
 

 GradGradGradGradGradGradGradGradGradGradGradGradGradGradGradGradGradGrad
 Berny optimization.
 Initialization pass.
                           ----------------------------
                           !    Initial Parameters    !
                           ! (Angstroms and Degrees)  !
 --------------------------                            --------------------------
 ! Name  Definition              Value          Derivative Info.                !
 --------------------------------------------------------------------------------
 ! R1    R(1,2)                  1.0904         estimate D2E/DX2                !
 ! R2    R(2,3)                  1.0895         estimate D2E/DX2                !
 ! R3    R(2,4)                  1.0903         estimate D2E/DX2                !
 ! R4    R(2,5)                  1.5489         estimate D2E/DX2                !
 ! R5    R(5,6)                  1.2306         estimate D2E/DX2                !
 ! R6    R(5,21)                 1.3405         estimate D2E/DX2                !
 ! R7    R(7,9)                  1.0807         estimate D2E/DX2                !
 ! R8    R(8,10)                 1.0807         estimate D2E/DX2                !
 ! R9    R(9,10)                 1.4079         estimate D2E/DX2                !
 ! R10   R(9,12)                 1.4066         estimate D2E/DX2                !
 ! R11   R(10,13)                1.4103         estimate D2E/DX2                !
 ! R12   R(11,12)                1.7266         estimate D2E/DX2                !
 ! R13   R(12,15)                1.4096         estimate D2E/DX2                !
 ! R14   R(13,14)                1.7255         estimate D2E/DX2                !
 ! R15   R(13,16)                1.4181         estimate D2E/DX2                !
 ! R16   R(15,16)                1.4136         estimate D2E/DX2                !
 ! R17   R(15,17)                1.0789         estimate D2E/DX2                !
 ! R18   R(16,19)                1.5264         estimate D2E/DX2                !
 ! R19   R(18,19)                1.0909         estimate D2E/DX2                !
 ! R20   R(19,20)                1.0872         estimate D2E/DX2                !
 ! R21   R(19,21)                1.4624         estimate D2E/DX2                !
 ! R22   R(21,22)                1.0194         estimate D2E/DX2                !
 ! A1    A(1,2,3)              109.4861         estimate D2E/DX2                !
 ! A2    A(1,2,4)              109.5176         estimate D2E/DX2                !
 ! A3    A(1,2,5)              111.1021         estimate D2E/DX2                !
 ! A4    A(3,2,4)              109.4496         estimate D2E/DX2                !
 ! A5    A(3,2,5)              108.6416         estimate D2E/DX2                !
 ! A6    A(4,2,5)              108.6169         estimate D2E/DX2                !
 ! A7    A(2,5,6)              119.7581         estimate D2E/DX2                !
 ! A8    A(2,5,21)             117.4447         estimate D2E/DX2                !
 ! A9    A(6,5,21)             122.7967         estimate D2E/DX2                !
 ! A10   A(7,9,10)             119.9436         estimate D2E/DX2                !
 ! A11   A(7,9,12)             120.3151         estimate D2E/DX2                !
 ! A12   A(10,9,12)            119.7361         estimate D2E/DX2                !
 ! A13   A(8,10,9)             119.5928         estimate D2E/DX2                !
 ! A14   A(8,10,13)            119.8884         estimate D2E/DX2                !
 ! A15   A(9,10,13)            120.5183         estimate D2E/DX2                !
 ! A16   A(9,12,11)            119.9876         estimate D2E/DX2                !
 ! A17   A(9,12,15)            119.9147         estimate D2E/DX2                !
 ! A18   A(11,12,15)           120.0838         estimate D2E/DX2                !
 ! A19   A(10,13,14)           118.2326         estimate D2E/DX2                !
 ! A20   A(10,13,16)           120.0808         estimate D2E/DX2                !
 ! A21   A(14,13,16)           121.6811         estimate D2E/DX2                !
 ! A22   A(12,15,16)           120.8512         estimate D2E/DX2                !
 ! A23   A(12,15,17)           119.2365         estimate D2E/DX2                !
 ! A24   A(16,15,17)           119.9083         estimate D2E/DX2                !
 ! A25   A(13,16,15)           118.8888         estimate D2E/DX2                !
 ! A26   A(13,16,19)           122.3074         estimate D2E/DX2                !
 ! A27   A(15,16,19)           118.7817         estimate D2E/DX2                !
 ! A28   A(16,19,18)           110.9729         estimate D2E/DX2                !
 ! A29   A(16,19,20)           106.6536         estimate D2E/DX2                !
 ! A30   A(16,19,21)           114.548          estimate D2E/DX2                !
 ! A31   A(18,19,20)           105.4826         estimate D2E/DX2                !
 ! A32   A(18,19,21)           111.7053         estimate D2E/DX2                !
 ! A33   A(20,19,21)           106.8425         estimate D2E/DX2                !
 ! A34   A(5,21,19)            125.9903         estimate D2E/DX2                !
 ! A35   A(5,21,22)            116.6905         estimate D2E/DX2                !
 ! A36   A(19,21,22)           117.2951         estimate D2E/DX2                !
 ! D1    D(1,2,5,6)              0.0169         estimate D2E/DX2                !
 ! D2    D(1,2,5,21)           179.7519         estimate D2E/DX2                !
 ! D3    D(3,2,5,6)            120.5169         estimate D2E/DX2                !
 ! D4    D(3,2,5,21)           -59.7481         estimate D2E/DX2                !
 ! D5    D(4,2,5,6)           -120.5062         estimate D2E/DX2                !
 ! D6    D(4,2,5,21)            59.2288         estimate D2E/DX2                !
 ! D7    D(2,5,21,19)         -175.4965         estimate D2E/DX2                !
 ! D8    D(2,5,21,22)            6.3449         estimate D2E/DX2                !
 ! D9    D(6,5,21,19)            4.2298         estimate D2E/DX2                !
 ! D10   D(6,5,21,22)         -173.9287         estimate D2E/DX2                !
 ! D11   D(7,9,10,8)             0.0919         estimate D2E/DX2                !
 ! D12   D(7,9,10,13)          179.8384         estimate D2E/DX2                !
 ! D13   D(12,9,10,8)          179.2642         estimate D2E/DX2                !
 ! D14   D(12,9,10,13)          -0.9894         estimate D2E/DX2                !
 ! D15   D(7,9,12,11)            1.6267         estimate D2E/DX2                !
 ! D16   D(7,9,12,15)         -179.7279         estimate D2E/DX2                !
 ! D17   D(10,9,12,11)        -177.5424         estimate D2E/DX2                !
 ! D18   D(10,9,12,15)           1.1029         estimate D2E/DX2                !
 ! D19   D(8,10,13,14)           0.7578         estimate D2E/DX2                !
 ! D20   D(8,10,13,16)         179.9222         estimate D2E/DX2                !
 ! D21   D(9,10,13,14)        -178.988          estimate D2E/DX2                !
 ! D22   D(9,10,13,16)           0.1765         estimate D2E/DX2                !
 ! D23   D(9,12,15,16)          -0.4123         estimate D2E/DX2                !
 ! D24   D(9,12,15,17)        -179.6944         estimate D2E/DX2                !
 ! D25   D(11,12,15,16)        178.2317         estimate D2E/DX2                !
 ! D26   D(11,12,15,17)         -1.0503         estimate D2E/DX2                !
 ! D27   D(10,13,16,15)          0.5122         estimate D2E/DX2                !
 ! D28   D(10,13,16,19)       -177.7561         estimate D2E/DX2                !
 ! D29   D(14,13,16,15)        179.6472         estimate D2E/DX2                !
 ! D30   D(14,13,16,19)          1.3788         estimate D2E/DX2                !
 ! D31   D(12,15,16,13)         -0.3958         estimate D2E/DX2                !
 ! D32   D(12,15,16,19)        177.9344         estimate D2E/DX2                !
 ! D33   D(17,15,16,13)        178.8815         estimate D2E/DX2                !
 ! D34   D(17,15,16,19)         -2.7884         estimate D2E/DX2                !
 ! D35   D(13,16,19,18)         29.5585         estimate D2E/DX2                !
 ! D36   D(13,16,19,20)        143.9561         estimate D2E/DX2                !
 ! D37   D(13,16,19,21)        -98.0677         estimate D2E/DX2                !
 ! D38   D(15,16,19,18)       -148.7117         estimate D2E/DX2                !
 ! D39   D(15,16,19,20)        -34.3141         estimate D2E/DX2                !
 ! D40   D(15,16,19,21)         83.6621         estimate D2E/DX2                !
 ! D41   D(16,19,21,5)         106.4878         estimate D2E/DX2                !
 ! D42   D(16,19,21,22)        -75.3636         estimate D2E/DX2                !
 ! D43   D(18,19,21,5)         -20.7647         estimate D2E/DX2                !
 ! D44   D(18,19,21,22)        157.3839         estimate D2E/DX2                !
 ! D45   D(20,19,21,5)        -135.6433         estimate D2E/DX2                !
 ! D46   D(20,19,21,22)         42.5053         estimate D2E/DX2                !
 --------------------------------------------------------------------------------
 Trust Radius=3.00D-01 FncErr=1.00D-07 GrdErr=1.00D-07
 Number of steps in this run=    114 maximum allowed number of steps=    132.
 GradGradGradGradGradGradGradGradGradGradGradGradGradGradGradGradGradGrad

                          Input orientation:                          
 ---------------------------------------------------------------------
 Center     Atomic      Atomic             Coordinates (Angstroms)
 Number     Number       Type             X           Y           Z
 ---------------------------------------------------------------------
      1          1           0       18.464000  -12.847000   20.722000
      2          6           0       18.009000  -11.901000   21.017000
      3          1           0       18.640000  -11.076000   20.688000
      4          1           0       17.906000  -11.869000   22.102000
      5          6           0       16.606000  -11.735000   20.382000
      6          8           0       16.157000  -12.619000   19.653000
      7          1           0       10.795000  -10.437000   24.173000
      8          1           0       11.107000  -12.417000   22.711000
      9          6           0       11.549000  -10.421000   23.399000
     10          6           0       11.728000  -11.544000   22.569000
     11         17           0       12.195000   -7.933000   24.282000
     12          6           0       12.366000   -9.289000   23.227000
     13          6           0       12.706000  -11.535000   21.553000
     14         17           0       12.857000  -12.933000   20.553000
     15          6           0       13.343000   -9.275000   22.211000
     16          6           0       13.522000  -10.391000   21.362000
     17          1           0       13.967000   -8.403000   22.092000
     18          1           0       14.259000  -10.905000   19.386000
     19          6           0       14.561000  -10.307000   20.247000
     20          1           0       14.562000   -9.277000   19.899000
     21          7           0       15.928000  -10.614000   20.666000
     22          1           0       16.424000   -9.902000   21.201000
 ---------------------------------------------------------------------
                    Distance matrix (angstroms):
                    1          2          3          4          5
     1  H    0.000000
     2  C    1.090397   0.000000
     3  H    1.780049   1.089508   0.000000
     4  H    1.781081   1.090348   1.779607   0.000000
     5  C    2.191873   1.548932   2.159878   2.160175   0.000000
     6  O    2.552840   2.409549   3.101187   3.101468   1.230649
     7  H    8.748203   8.009084   8.607995   7.543606   7.058626
     8  H    7.633248   7.125552   7.914348   6.848181   6.010688
     9  C    7.801861   7.042437   7.619766   6.647583   6.033418
    10  C    7.105133   6.479746   7.178644   6.204144   5.349237
    11  Cl   8.724755   7.759371   8.020805   7.270489   7.008718
    12  C    7.491328   6.599249   7.000212   6.213986   5.661673
    13  C    5.963763   5.342571   6.014255   5.239557   4.076916
    14  Cl   5.610206   5.274791   6.075341   5.387383   3.939473
    15  C    6.418796   5.485715   5.798391   5.249922   4.477054
    16  C    5.555619   4.746819   5.207439   4.685247   3.503968
    17  H    6.469084   5.452467   5.563549   5.246806   4.581555
    18  H    4.820610   4.208881   4.573577   4.648286   2.681292
    19  C    4.680880   3.875879   4.174216   4.131573   2.497886
    20  H    5.352367   4.474048   4.526478   4.770116   3.233108
    21  N    3.379456   2.471868   2.751158   2.747654   1.340515
    22  H    3.614425   2.557749   2.559707   2.622444   2.015880
                    6          7          8          9         10
     6  O    0.000000
     7  H    7.344560   0.000000
     8  H    5.907171   2.480965   0.000000
     9  C    6.332250   1.080670   2.157017   0.000000
    10  C    5.410612   2.160730   1.080710   1.407860   0.000000
    11  Cl   7.686591   2.870870   4.874222   2.717931   4.023901
    12  C    6.183369   2.163530   3.411117   1.406591   2.434139
    13  C    4.085885   3.423730   2.162334   2.446908   1.410256
    14  Cl   3.434908   4.856569   2.825902   4.015062   2.695963
    15  C    5.064020   3.419355   3.888684   2.437847   2.807980
    16  C    3.850700   3.916678   3.428805   2.836018   2.450448
    17  H    5.340363   4.304567   4.967389   3.409882   3.886712
    18  H    2.571282   5.927368   4.824611   4.866469   4.116524
    19  C    2.871480   5.441795   4.738514   4.361220   3.866231
    20  H    3.711267   5.814032   5.450135   4.757826   4.505524
    21  N    2.258016   6.219169   5.538490   5.165480   4.703861
    22  H    3.138420   6.387852   6.072546   5.372726   5.159458
                   11         12         13         14         15
    11  Cl   0.000000
    12  C    1.726558   0.000000
    13  C    4.547853   2.821771   0.000000
    14  Cl   6.272454   4.546437   1.725458   0.000000
    15  C    2.721747   1.409603   2.438510   4.045507   0.000000
    16  C    4.040927   2.455395   1.418123   2.749267   1.413612
    17  H    2.856043   2.153235   3.419074   4.911367   1.078852
    18  H    6.087996   4.576919   2.739452   2.727687   3.387710
    19  C    5.245480   3.838587   2.579660   3.145334   2.530977
    20  H    5.159430   3.987248   3.358425   4.086695   2.613677
    21  N    5.847949   4.582815   3.466453   3.849879   3.295781
    22  H    5.590524   4.576878   4.076042   4.725500   3.302392
                   16         17         18         19         20
    16  C    0.000000
    17  H    2.164040   0.000000
    18  H    2.170701   3.696986   0.000000
    19  C    1.526369   2.716998   1.090930   0.000000
    20  H    2.112573   2.434574   1.733598   1.087201   0.000000
    21  N    2.514554   3.281390   2.123356   1.462361   2.059566
    22  H    2.947312   3.012927   2.997909   2.131879   2.356453
                   21         22
    21  N    0.000000
    22  H    1.019404   0.000000
 Stoichiometry    C9H9Cl2NO
 Framework group  C1[X(C9H9Cl2NO)]
 Deg. of freedom    60
 Full point group                 C1      NOp   1
 Largest Abelian subgroup         C1      NOp   1
 Largest concise Abelian subgroup C1      NOp   1
                         Standard orientation:                         
 ---------------------------------------------------------------------
 Center     Atomic      Atomic             Coordinates (Angstroms)
 Number     Number       Type             X           Y           Z
 ---------------------------------------------------------------------
      1          1           0        4.705055   -1.557035   -1.497338
      2          6           0        3.765865   -1.955739   -1.112730
      3          1           0        3.958907   -2.879949   -0.569042
      4          1           0        3.088626   -2.157655   -1.943052
      5          6           0        3.084504   -0.949438   -0.152368
      6          8           0        3.620647    0.134105    0.077812
      7          1           0       -3.544947    1.313647   -1.020146
      8          1           0       -1.549755    2.787698   -0.980512
      9          6           0       -2.622828    0.959507   -0.581820
     10          6           0       -1.489402    1.794316   -0.559225
     11         17           0       -3.910248   -1.391091   -0.129727
     12          6           0       -2.543263   -0.339554   -0.048335
     13          6           0       -0.280898    1.345784    0.012753
     14         17           0        1.063558    2.427103    0.032546
     15          6           0       -1.337926   -0.790806    0.526571
     16          6           0       -0.197627    0.043629    0.568208
     17          1           0       -1.287602   -1.790915    0.928029
     18          1           0        1.633098    0.341608    1.695860
     19          6           0        1.068567   -0.475429    1.244325
     20          1           0        0.745401   -1.098501    2.074596
     21          7           0        1.913837   -1.310476    0.391849
     22          1           0        1.600964   -2.264233    0.213963
 ---------------------------------------------------------------------
 Rotational constants (GHZ):      0.9387567      0.3408253      0.2681259
 Standard basis: 6-31G(d) (6D, 7F)
 There are   221 symmetry adapted cartesian basis functions of A   symmetry.
 There are   221 symmetry adapted basis functions of A   symmetry.
   221 basis functions,   448 primitive gaussians,   221 cartesian basis functions
    56 alpha electrons       56 beta electrons
       nuclear repulsion energy       936.1852526184 Hartrees.
 NAtoms=   22 NActive=   22 NUniq=   22 SFac= 1.00D+00 NAtFMM=   60 NAOKFM=F Big=F
 Integral buffers will be    131072 words long.
 Raffenetti 1 integral format.
 Two-electron integral symmetry is turned on.
 One-electron integrals computed using PRISM.
 NBasis=   221 RedAO= T EigKep=  4.74D-04  NBF=   221
 NBsUse=   221 1.00D-06 EigRej= -1.00D+00 NBFU=   221
 ExpMin= 1.43D-01 ExpMax= 2.52D+04 ExpMxC= 3.78D+03 IAcc=1 IRadAn=         1 AccDes= 0.00D+00
 Harris functional with IExCor=  205 and IRadAn=       1 diagonalized for initial guess.
 HarFok:  IExCor=  205 AccDes= 0.00D+00 IRadAn=         1 IDoV= 1 UseB2=F ITyADJ=14
 ICtDFT=  3500011 ScaDFX=  1.000000  1.000000  1.000000  1.000000
 FoFCou: FMM=F IPFlag=           0 FMFlag=      100000 FMFlg1=           0
         NFxFlg=           0 DoJE=T BraDBF=F KetDBF=T FulRan=T
         wScrn=  0.000000 ICntrl=     500 IOpCl=  0 I1Cent=   200000004 NGrid=           0
         NMat0=    1 NMatS0=      1 NMatT0=    0 NMatD0=    1 NMtDS0=    0 NMtDT0=    0
 Petite list used in FoFCou.
 Keep R1 ints in memory in canonical form, NReq=306535721.
 Requested convergence on RMS density matrix=1.00D-08 within 128 cycles.
 Requested convergence on MAX density matrix=1.00D-06.
 Requested convergence on             energy=1.00D-06.
 No special actions if energy rises.
 SCF Done:  E(RHF) =  -1394.33471715     A.U. after   15 cycles
            NFock= 15  Conv=0.78D-08     -V/T= 2.0012

 **********************************************************************

            Population analysis using the SCF density.

 **********************************************************************

 Orbital symmetries:
 BldTbl:  Degeneracy threshold= 1.00D-02
       Occupied  (A) (A) (A) (A) (A) (A) (A) (A) (A) (A) (A) (A)
                 (A) (A) (A) (A) (A) (A) (A) (A) (A) (A) (A) (A)
                 (A) (A) (A) (A) (A) (A) (A) (A) (A) (A) (A) (A)
                 (A) (A) (A) (A) (A) (A) (A) (A) (A) (A) (A) (A)
                 (A) (A) (A) (A) (A) (A) (A) (A)
       Virtual   (A) (A) (A) (A) (A) (A) (A) (A) (A) (A) (A) (A)
                 (A) (A) (A) (A) (A) (A) (A) (A) (A) (A) (A) (A)
                 (A) (A) (A) (A) (A) (A) (A) (A) (A) (A) (A) (A)
                 (A) (A) (A) (A) (A) (A) (A) (A) (A) (A) (A) (A)
                 (A) (A) (A) (A) (A) (A) (A) (A) (A) (A) (A) (A)
                 (A) (A) (A) (A) (A) (A) (A) (A) (A) (A) (A) (A)
                 (A) (A) (A) (A) (A) (A) (A) (A) (A) (A) (A) (A)
                 (A) (A) (A) (A) (A) (A) (A) (A) (A) (A) (A) (A)
                 (A) (A) (A) (A) (A) (A) (A) (A) (A) (A) (A) (A)
                 (A) (A) (A) (A) (A) (A) (A) (A) (A) (A) (A) (A)
                 (A) (A) (A) (A) (A) (A) (A) (A) (A) (A) (A) (A)
                 (A) (A) (A) (A) (A) (A) (A) (A) (A) (A) (A) (A)
                 (A) (A) (A) (A) (A) (A) (A) (A) (A) (A) (A) (A)
                 (A) (A) (A) (A) (A) (A) (A) (A) (A)
 The electronic state is 1-A.
 Alpha  occ. eigenvalues -- -104.84020-104.82855 -20.51387 -15.60015 -11.35139
 Alpha  occ. eigenvalues --  -11.32178 -11.31870 -11.28916 -11.27918 -11.27220
 Alpha  occ. eigenvalues --  -11.27062 -11.26950 -11.23957 -10.57372 -10.56209
 Alpha  occ. eigenvalues --   -8.04316  -8.03974  -8.03971  -8.03151  -8.02805
 Alpha  occ. eigenvalues --   -8.02794  -1.36706  -1.23949  -1.20622  -1.16841
 Alpha  occ. eigenvalues --   -1.09943  -1.06296  -1.00696  -0.98042  -0.94006
 Alpha  occ. eigenvalues --   -0.85364  -0.80842  -0.78912  -0.70051  -0.69039
 Alpha  occ. eigenvalues --   -0.67497  -0.65849  -0.65093  -0.62307  -0.59877
 Alpha  occ. eigenvalues --   -0.59055  -0.57281  -0.56937  -0.55536  -0.55446
 Alpha  occ. eigenvalues --   -0.54466  -0.52092  -0.51280  -0.50732  -0.46483
 Alpha  occ. eigenvalues --   -0.45307  -0.44915  -0.40888  -0.39276  -0.35693
 Alpha  occ. eigenvalues --   -0.33062
 Alpha virt. eigenvalues --    0.10647   0.10719   0.18096   0.20321   0.20847
 Alpha virt. eigenvalues --    0.22281   0.25540   0.27673   0.27968   0.29777
 Alpha virt. eigenvalues --    0.30082   0.30804   0.32022   0.32340   0.32758
 Alpha virt. eigenvalues --    0.37834   0.39791   0.42090   0.42857   0.43783
 Alpha virt. eigenvalues --    0.46391   0.46737   0.48588   0.54437   0.56621
 Alpha virt. eigenvalues --    0.57612   0.59618   0.61213   0.62529   0.62844
 Alpha virt. eigenvalues --    0.64662   0.65220   0.69582   0.69928   0.73206
 Alpha virt. eigenvalues --    0.74419   0.74763   0.75596   0.76887   0.78990
 Alpha virt. eigenvalues --    0.80251   0.80548   0.82319   0.83022   0.84457
 Alpha virt. eigenvalues --    0.84910   0.86936   0.87539   0.89177   0.91676
 Alpha virt. eigenvalues --    0.94303   0.95452   0.98187   0.98801   0.99100
 Alpha virt. eigenvalues --    1.00733   1.04656   1.06758   1.07660   1.08944
 Alpha virt. eigenvalues --    1.10081   1.11535   1.12606   1.13383   1.13852
 Alpha virt. eigenvalues --    1.13889   1.14758   1.16149   1.17072   1.17428
 Alpha virt. eigenvalues --    1.17902   1.18606   1.20642   1.21691   1.22791
 Alpha virt. eigenvalues --    1.23455   1.24293   1.26800   1.29659   1.32916
 Alpha virt. eigenvalues --    1.35603   1.37600   1.38128   1.40390   1.42792
 Alpha virt. eigenvalues --    1.46107   1.47450   1.48637   1.53872   1.57521
 Alpha virt. eigenvalues --    1.60736   1.62442   1.65190   1.66653   1.67617
 Alpha virt. eigenvalues --    1.69584   1.72188   1.72798   1.75605   1.79069
 Alpha virt. eigenvalues --    1.81274   1.82474   1.84400   1.90423   1.95992
 Alpha virt. eigenvalues --    2.04052   2.05383   2.06906   2.07418   2.12172
 Alpha virt. eigenvalues --    2.13019   2.15016   2.21461   2.22952   2.23696
 Alpha virt. eigenvalues --    2.25831   2.29064   2.30828   2.33916   2.35281
 Alpha virt. eigenvalues --    2.37170   2.38456   2.41669   2.43299   2.47494
 Alpha virt. eigenvalues --    2.50034   2.52473   2.53544   2.56124   2.57842
 Alpha virt. eigenvalues --    2.61248   2.65837   2.66105   2.70037   2.75002
 Alpha virt. eigenvalues --    2.78913   2.84693   2.89668   2.91448   2.94209
 Alpha virt. eigenvalues --    2.99755   3.02062   3.05592   3.06073   3.07042
 Alpha virt. eigenvalues --    3.10170   3.20116   3.24746   3.33881   3.38521
 Alpha virt. eigenvalues --    3.52485   3.66386   4.37229   4.44885   4.45923
 Alpha virt. eigenvalues --    4.47127   4.53009   4.60988   4.65135   4.72458
 Alpha virt. eigenvalues --    4.76056   4.79042   4.82586   4.89565   5.09324
          Condensed to atoms (all electrons):
               1          2          3          4          5          6
     1  H    0.450295   0.385583  -0.018849  -0.018445  -0.028548   0.003672
     2  C    0.385583   5.262400   0.370961   0.373010   0.369089  -0.070675
     3  H   -0.018849   0.370961   0.522236  -0.024815  -0.033752   0.001337
     4  H   -0.018445   0.373010  -0.024815   0.513853  -0.034202   0.001212
     5  C   -0.028548   0.369089  -0.033752  -0.034202   4.187001   0.605644
     6  O    0.003672  -0.070675   0.001337   0.001212   0.605644   8.171454
     7  H    0.000000   0.000000   0.000000   0.000000   0.000000   0.000000
     8  H    0.000000   0.000000   0.000000   0.000000   0.000000   0.000000
     9  C    0.000000   0.000000   0.000000   0.000000   0.000000   0.000000
    10  C    0.000000   0.000000   0.000000   0.000000  -0.000010  -0.000002
    11  Cl   0.000000   0.000000   0.000000   0.000000   0.000000   0.000000
    12  C    0.000000   0.000000   0.000000   0.000000   0.000001   0.000000
    13  C    0.000000  -0.000021   0.000000   0.000004   0.000362  -0.000312
    14  Cl  -0.000001  -0.000004   0.000000  -0.000001  -0.000262   0.000305
    15  C    0.000000  -0.000010   0.000000   0.000003  -0.000010  -0.000010
    16  C    0.000001  -0.000121  -0.000002   0.000029  -0.000748  -0.000050
    17  H    0.000000   0.000000   0.000000   0.000000   0.000002   0.000000
    18  H    0.000000   0.000195  -0.000014  -0.000004   0.000303   0.005059
    19  C   -0.000063   0.003779  -0.000159  -0.000215  -0.015516   0.005232
    20  H    0.000001  -0.000025   0.000001  -0.000003   0.002407   0.000303
    21  N    0.003369  -0.116759   0.003767   0.004013   0.228068  -0.104566
    22  H   -0.000019   0.000133   0.000695   0.000303  -0.019662   0.002477
               7          8          9         10         11         12
     1  H    0.000000   0.000000   0.000000   0.000000   0.000000   0.000000
     2  C    0.000000   0.000000   0.000000   0.000000   0.000000   0.000000
     3  H    0.000000   0.000000   0.000000   0.000000   0.000000   0.000000
     4  H    0.000000   0.000000   0.000000   0.000000   0.000000   0.000000
     5  C    0.000000   0.000000   0.000000  -0.000010   0.000000   0.000001
     6  O    0.000000   0.000000   0.000000  -0.000002   0.000000   0.000000
     7  H    0.431499  -0.001535   0.382306  -0.025529   0.000711  -0.029009
     8  H   -0.001535   0.428880  -0.026150   0.382429  -0.000075   0.002138
     9  C    0.382306  -0.026150   4.945838   0.526677  -0.065350   0.525564
    10  C   -0.025529   0.382429   0.526677   4.967922   0.002679  -0.039315
    11  Cl   0.000711  -0.000075  -0.065350   0.002679  16.899100   0.209667
    12  C   -0.029009   0.002138   0.525564  -0.039315   0.209667   5.039505
    13  C    0.002131  -0.027566  -0.041399   0.514867   0.000113  -0.031161
    14  Cl  -0.000077   0.000663   0.002811  -0.073818   0.000003   0.000136
    15  C    0.002128   0.000211  -0.050868  -0.030595  -0.066588   0.523561
    16  C    0.000140   0.001704  -0.023199  -0.054966   0.002616  -0.038090
    17  H   -0.000099   0.000007   0.002171   0.000095   0.001050  -0.027615
    18  H    0.000000   0.000001  -0.000007   0.000073   0.000001  -0.000034
    19  C    0.000003  -0.000086   0.000127   0.002287  -0.000098   0.002032
    20  H    0.000000   0.000002  -0.000018  -0.000041  -0.000008   0.000226
    21  N    0.000000   0.000002   0.000000  -0.000003   0.000003   0.000027
    22  H    0.000000   0.000000  -0.000001  -0.000002   0.000000   0.000005
              13         14         15         16         17         18
     1  H    0.000000  -0.000001   0.000000   0.000001   0.000000   0.000000
     2  C   -0.000021  -0.000004  -0.000010  -0.000121   0.000000   0.000195
     3  H    0.000000   0.000000   0.000000  -0.000002   0.000000  -0.000014
     4  H    0.000004  -0.000001   0.000003   0.000029   0.000000  -0.000004
     5  C    0.000362  -0.000262  -0.000010  -0.000748   0.000002   0.000303
     6  O   -0.000312   0.000305  -0.000010  -0.000050   0.000000   0.005059
     7  H    0.002131  -0.000077   0.002128   0.000140  -0.000099   0.000000
     8  H   -0.027566   0.000663   0.000211   0.001704   0.000007   0.000001
     9  C   -0.041399   0.002811  -0.050868  -0.023199   0.002171  -0.000007
    10  C    0.514867  -0.073818  -0.030595  -0.054966   0.000095   0.000073
    11  Cl   0.000113   0.000003  -0.066588   0.002616   0.001050   0.000001
    12  C   -0.031161   0.000136   0.523561  -0.038090  -0.027615  -0.000034
    13  C    5.081360   0.227343  -0.039575   0.515546   0.002403  -0.004093
    14  Cl   0.227343  16.862749   0.001772  -0.069904  -0.000069  -0.002275
    15  C   -0.039575   0.001772   4.981338   0.533529   0.382636   0.002655
    16  C    0.515546  -0.069904   0.533529   4.944444  -0.031702  -0.035672
    17  H    0.002403  -0.000069   0.382636  -0.031702   0.446331   0.000071
    18  H   -0.004093  -0.002275   0.002655  -0.035672   0.000071   0.418852
    19  C   -0.035599  -0.003681  -0.038952   0.328699  -0.002721   0.403989
    20  H    0.003126   0.000392  -0.003830  -0.062240   0.001446  -0.022093
    21  N    0.000887   0.000429  -0.000495  -0.069739   0.000419  -0.028743
    22  H   -0.000007  -0.000036   0.001421   0.000583   0.000239   0.002179
              19         20         21         22
     1  H   -0.000063   0.000001   0.003369  -0.000019
     2  C    0.003779  -0.000025  -0.116759   0.000133
     3  H   -0.000159   0.000001   0.003767   0.000695
     4  H   -0.000215  -0.000003   0.004013   0.000303
     5  C   -0.015516   0.002407   0.228068  -0.019662
     6  O    0.005232   0.000303  -0.104566   0.002477
     7  H    0.000003   0.000000   0.000000   0.000000
     8  H   -0.000086   0.000002   0.000002   0.000000
     9  C    0.000127  -0.000018   0.000000  -0.000001
    10  C    0.002287  -0.000041  -0.000003  -0.000002
    11  Cl  -0.000098  -0.000008   0.000003   0.000000
    12  C    0.002032   0.000226   0.000027   0.000005
    13  C   -0.035599   0.003126   0.000887  -0.000007
    14  Cl  -0.003681   0.000392   0.000429  -0.000036
    15  C   -0.038952  -0.003830  -0.000495   0.001421
    16  C    0.328699  -0.062240  -0.069739   0.000583
    17  H   -0.002721   0.001446   0.000419   0.000239
    18  H    0.403989  -0.022093  -0.028743   0.002179
    19  C    4.924524   0.422261   0.186739  -0.023738
    20  H    0.422261   0.518375  -0.049432  -0.002588
    21  N    0.186739  -0.049432   7.399549   0.321796
    22  H   -0.023738  -0.002588   0.321796   0.332685
 Mulliken charges:
               1
     1  H    0.223004
     2  C   -0.577536
     3  H    0.178595
     4  H    0.185257
     5  C    0.739833
     6  O   -0.621079
     7  H    0.237331
     8  H    0.239375
     9  C   -0.178501
    10  C   -0.172746
    11  Cl   0.016176
    12  C   -0.137637
    13  C   -0.168409
    14  Cl   0.053524
    15  C   -0.198321
    16  C    0.059142
    17  H    0.225336
    18  H    0.259558
    19  C   -0.158845
    20  H    0.191739
    21  N   -0.779329
    22  H    0.383536
 Sum of Mulliken charges =   0.00000
 Mulliken charges with hydrogens summed into heavy atoms:
               1
     2  C    0.009319
     5  C    0.739833
     6  O   -0.621079
     9  C    0.058829
    10  C    0.066629
    11  Cl   0.016176
    12  C   -0.137637
    13  C   -0.168409
    14  Cl   0.053524
    15  C    0.027014
    16  C    0.059142
    19  C    0.292453
    21  N   -0.395793
 DipInt: DoE/N= T F RetVal/Mat= T F Init=T NMatP=  1 IDeriv=0 Min/MaxMlt=  0  4
 Entering OneElI...
 OneElI was handed  2147355904 working-precision words.
 Multipole integrals L=0 to 4 MinM= 0 MaxM= 0.
 Requested accuracy = 0.1000D-12
 ShPair: Thresh= 1.00D-13 NBox=     0 BxSize= 0.00D+00 RnKept= 1.65D+01
         NSMCal=                 2628 NSMKep=                2259
 PrsmSu:  NPrtUS=   1 ThrOK=F IAlg=1 NPAlg=1 LenDen=           0.
 Prism:   IPart=     0 DynPar=F LinDyn=F Incr=          22.
 PRISM was handed  2147138528 working-precision words and  2259 shell-pairs
 IPart=  0 NShTot=        2259 NBatch=          57 AvBLen=        39.6
 PrSmSu:  NxtVal=             23.
 Electronic moments (au):
       -112.00000000         -0.74913571         -1.20729589         -0.08148117
      -2695.37966783       -952.40095161       -216.43182544        -11.13563888
         -0.26908346         -1.84945499        985.03624925      -1028.71257550
        -31.02427929       -648.79075273       4036.11390512       1355.76444146
       -349.26987323        205.16388216        351.24381617       -603.10586923
    -122183.32956799     -16600.81878265      -1729.68724805      -1346.35870680
       3939.12594046        493.01438408       -552.34392929        454.80739938
       -184.69077833     -20066.67217621      -5035.51326073      -1766.71045268
      -3515.39144518       1187.92996326       1580.88554722
 Electronic spatial extent (au):  <R**2>=           3864.2124
 DipInt: DoE/N= F T RetVal/Mat= T F Init=T NMatP=  1 IDeriv=0 Min/MaxMlt=  0  4
 Nuclear    moments (au):
        112.00000000          0.00000000          0.00000000          0.00000000
       2618.67420298        891.38401276        150.83933615          0.00000000
          0.00000000          0.00000000      -1015.76293651       1011.37541038
         34.68121790        664.65433256      -4057.88743502      -1385.40637382
        363.61029959       -206.95306870       -356.91950394        618.83759150
     112392.65503900      13445.51371046        957.06036318       1023.68310411
      -4004.55565264       -514.15527019        490.69394524       -445.75693280
        184.90300997      18126.82905023       3382.64162480       1091.57461085
       3515.63802697      -1164.52017053      -1576.96811707
 Total      moments (au):
          0.00000000         -0.74913571         -1.20729589         -0.08148117
        -76.70546485        -61.01693886        -65.59248929        -11.13563888
         -0.26908346         -1.84945499        -30.72668726        -17.33716512
          3.65693860         15.86357983        -21.77352990        -29.64193236
         14.34042636         -1.78918654         -5.67568777         15.73172227
      -9790.67452898      -3155.30507219       -772.62688487       -322.67560269
        -65.42971218        -21.14088611        -61.64998405          9.05046658
          0.21223165      -1939.84312598      -1652.87163593       -675.13584183
          0.24658179         23.40979273          3.91743015
 Traceless Quadrup. (au):
         -8.93383385          6.75469214          2.17914171        -11.13563888
         -0.26908346         -1.84945499
 Charge=              0.0000 electrons
 Dipole moment (field-independent basis, Debye):
    X=             -1.9041    Y=             -3.0686    Z=             -0.2071  Tot=              3.6173
 Quadrupole moment (field-independent basis, Debye-Ang):
   XX=           -103.1715   YY=            -82.0699   ZZ=            -88.2241
   XY=            -14.9778   XZ=             -0.3619   YZ=             -2.4876
 Traceless Quadrupole moment (field-independent basis, Debye-Ang):
   XX=            -12.0163   YY=              9.0853   ZZ=              2.9310
   XY=            -14.9778   XZ=             -0.3619   YZ=             -2.4876
 Octapole moment (field-independent basis, Debye-Ang**2):
  XXX=            -21.8701  YYY=            -12.3399  ZZZ=              2.6029  XYY=             11.2911
  XXY=            -15.4976  XXZ=            -21.0980  XZZ=             10.2070  YZZ=             -1.2735
  YYZ=             -4.0397  XYZ=             11.1972
 Hexadecapole moment (field-independent basis, Debye-Ang**3):
 XXXX=          -3687.6373 YYYY=          -1188.4391 ZZZZ=           -291.0083 XXXY=           -121.5351
 XXXZ=            -24.6440 YYYX=             -7.9627 YYYZ=            -23.2203 ZZZX=              3.4088
 ZZZY=              0.0799 XXYY=           -730.6379 XXZZ=           -622.5507 YYZZ=           -254.2885
 XXYZ=              0.0929 YYXZ=              8.8172 ZZXY=              1.4755
 N-N= 9.361852526184D+02 E-N=-5.170389004466D+03  KE= 1.392638277557D+03
 Entering OneElI...
 OneElI was handed  2147379664 working-precision words.
 Calculate electrostatic properties
    NBasis =   221  MinDer = 0  MaxDer = 0
    NGrid  =    22  NMatD  =   1
 Requested accuracy = 0.1000D-12
 PrtBox:  NBox=     1 Levels=  1 BoxLen=   32.45 SMaxX=       16.28
          Shift=            7.389298            5.442316            3.671836
 Box      1 Number                   0 centers from      1 to     72:
 ShPair: Thresh= 1.00D-13 NBox=     1 BxSize= 3.24D+01 RnKept= 1.65D+01
         NSMCal=                 2628 NSMKep=                2056
 PrsmSu:  NPrtUS=   4 ThrOK=T IAlg=1 NPAlg=1 LenDen=           0.
 Prism:   IPart=     0 DynPar=F LinDyn=F Incr=         113.
 PRISM was handed   536741894 working-precision words and  2056 shell-pairs
 PRISM was handed   536741894 working-precision words and  2056 shell-pairs
 PRISM was handed   536741894 working-precision words and  2056 shell-pairs
 PRISM was handed   536741894 working-precision words and  2056 shell-pairs
 IPart=  1 NShTot=       11440 NBatch=         520 AvBLen=        22.0
 IPart=  3 NShTot=       10868 NBatch=         494 AvBLen=        22.0
 IPart=  0 NShTot=       11836 NBatch=         538 AvBLen=        22.0
 IPart=  2 NShTot=       11088 NBatch=         504 AvBLen=        22.0
 PrSmSu:  NxtVal=            453.
 --------------------------------------------------------
       Center         ----      EFG at Nuclei      ----
                      3XX-RR        3YY-RR        3ZZ-RR
 --------------------------------------------------------
     1   Atom       -0.183916      0.089251      0.094665
     2   Atom        0.025213      0.000578     -0.025792
     3   Atom        0.140483     -0.179210      0.038727
     4   Atom       -0.026660      0.138849     -0.112189
     5   Atom        0.007310      0.218514     -0.225824
     6   Atom        0.564842     -0.727060      0.162218
     7   Atom       -0.186651      0.097765      0.088886
     8   Atom        0.144900     -0.239272      0.094373
     9   Atom        0.136961      0.077672     -0.214633
    10   Atom        0.108697      0.110936     -0.219633
    11   Atom       -1.585353     -0.188728      1.774081
    12   Atom       -0.065723      0.085141     -0.019418
    13   Atom       -0.043317      0.068319     -0.025002
    14   Atom       -1.353355     -0.395180      1.748535
    15   Atom        0.100397      0.087895     -0.188292
    16   Atom        0.126718      0.081191     -0.207908
    17   Atom        0.145919     -0.248765      0.102846
    18   Atom        0.025897     -0.099501      0.073603
    19   Atom       -0.028728      0.077298     -0.048570
    20   Atom        0.108550     -0.000056     -0.108494
    21   Atom       -0.139787     -0.391924      0.531711
    22   Atom        0.113398     -0.298565      0.185166
 --------------------------------------------------------
                        XY            XZ            YZ
 --------------------------------------------------------
     1   Atom       -0.141609      0.138157      0.056205
     2   Atom        0.056326      0.027238     -0.041779
     3   Atom        0.071382     -0.033992      0.193236
     4   Atom       -0.050930     -0.213241     -0.069883
     5   Atom        0.147368     -0.270240      0.305021
     6   Atom       -0.594650     -1.165448      0.350631
     7   Atom        0.126714     -0.165430      0.069663
     8   Atom        0.022457     -0.016894      0.172283
     9   Atom        0.055155      0.119699     -0.127990
    10   Atom        0.066446      0.111459     -0.149465
    11   Atom       -2.663028     -0.193198     -0.222722
    12   Atom       -0.243955      0.107920     -0.161056
    13   Atom       -0.227482      0.117166     -0.150521
    14   Atom       -2.873891      0.028718     -0.074486
    15   Atom        0.064069      0.106027     -0.127514
    16   Atom        0.053619      0.112641     -0.130071
    17   Atom        0.020720     -0.016955      0.169977
    18   Atom       -0.158058     -0.093429     -0.137202
    19   Atom        0.209604      0.110468     -0.103530
    20   Atom       -0.072302      0.107137      0.197317
    21   Atom       -0.197631      0.629955     -0.433152
    22   Atom       -0.165350      0.006985     -0.104999
 --------------------------------------------------------


 ---------------------------------------------------------------------------------
              Nuclear Quadrupole Coupling Constant in Principal Axis System
 ---------------------------------------------------------------------------------

       Atom             a.u.   MegaHertz   Gauss  10(-4) cm-1        Axes

              Baa    -3.6555   -70.130   -25.024   -23.393  0.7903  0.6105  0.0532
    11 Cl(35) Bbb     1.7581    33.728    12.035    11.250 -0.3272  0.3471  0.8789
              Bcc     1.8974    36.402    12.989    12.142 -0.5181  0.7119 -0.4741
 
              Baa    -3.7879   -72.671   -25.931   -24.241  0.7630  0.6464  0.0047
    14 Cl(35) Bbb     1.7303    33.195    11.845    11.073 -0.1567  0.1779  0.9715
              Bcc     2.0577    39.476    14.086    13.168 -0.6271  0.7420 -0.2370
 
              Baa    -0.5846     2.807     1.002     0.936 -0.3973  0.7575  0.5181
    21 N(14)  Bbb    -0.4792     2.301     0.821     0.768  0.7819  0.5749 -0.2409
              Bcc     1.0638    -5.109    -1.823    -1.704  0.4804 -0.3094  0.8207
 

 ---------------------------------------------------------------------------------

 No NMR shielding tensors so no spin-rotation constants.
 Leave Link  601 at Wed Nov 29 20:18:15 2017, MaxMem=  2147483648 cpu:         0.4
 FitSet:  NAtFit=    22 NAtPot=    22 NAtFrz=     0 MDM=    26 TotChg=   0.00000
 Merz-Kollman atomic radii used.
 Atom Element Radius
    1     1    1.20
    2     6    1.50
    3     1    1.20
    4     1    1.20
    5     6    1.50
    6     8    1.40
    7     1    1.20
    8     1    1.20
    9     6    1.50
   10     6    1.50
   11    17    1.70
   12     6    1.50
   13     6    1.50
   14    17    1.70
   15     6    1.50
   16     6    1.50
   17     1    1.20
   18     1    1.20
   19     6    1.50
   20     1    1.20
   21     7    1.50
   22     1    1.20
 Generate VDW surfaces: Layer= 4 Dens= 6 Start= 1.400 Inc= 0.200

 **********************************************************************

            Electrostatic Properties Using The SCF Density

 **********************************************************************

       Atomic Center    1 is at   4.705055 -1.557035 -1.497338
       Atomic Center    2 is at   3.765865 -1.955739 -1.112730
       Atomic Center    3 is at   3.958907 -2.879949 -0.569042
       Atomic Center    4 is at   3.088626 -2.157655 -1.943052
       Atomic Center    5 is at   3.084504 -0.949438 -0.152368
       Atomic Center    6 is at   3.620647  0.134105  0.077812
       Atomic Center    7 is at  -3.544947  1.313647 -1.020146
       Atomic Center    8 is at  -1.549755  2.787698 -0.980512
       Atomic Center    9 is at  -2.622828  0.959507 -0.581820
       Atomic Center   10 is at  -1.489402  1.794316 -0.559225
       Atomic Center   11 is at  -3.910248 -1.391091 -0.129727
       Atomic Center   12 is at  -2.543263 -0.339554 -0.048335
       Atomic Center   13 is at  -0.280898  1.345784  0.012753
       Atomic Center   14 is at   1.063558  2.427103  0.032546
       Atomic Center   15 is at  -1.337926 -0.790806  0.526571
       Atomic Center   16 is at  -0.197627  0.043629  0.568208
       Atomic Center   17 is at  -1.287602 -1.790915  0.928029
       Atomic Center   18 is at   1.633098  0.341608  1.695860
       Atomic Center   19 is at   1.068567 -0.475429  1.244325
       Atomic Center   20 is at   0.745401 -1.098501  2.074596
       Atomic Center   21 is at   1.913837 -1.310476  0.391849
       Atomic Center   22 is at   1.600964 -2.264233  0.213963
      ESP Fit Center   23 is at   5.545055 -1.557035 -0.042416
      ESP Fit Center   24 is at   5.432517 -1.137035 -0.042416
      ESP Fit Center   25 is at   5.892995 -1.557035 -0.309399
      ESP Fit Center   26 is at   5.812776 -1.127902 -0.309399
      ESP Fit Center   27 is at   5.582953 -0.756725 -0.309399
      ESP Fit Center   28 is at   5.812776 -1.986168 -0.309399
      ESP Fit Center   29 is at   6.159978 -1.557035 -0.657338
      ESP Fit Center   30 is at   6.095340 -1.128189 -0.657338
      ESP Fit Center   31 is at   5.907169 -0.737448 -0.657338
      ESP Fit Center   32 is at   5.612185 -0.419531 -0.657338
      ESP Fit Center   33 is at   5.907169 -2.376622 -0.657338
      ESP Fit Center   34 is at   6.095340 -1.985881 -0.657338
      ESP Fit Center   35 is at   6.327811 -1.557035 -1.062522
      ESP Fit Center   36 is at   6.272517 -1.137035 -1.062522
      ESP Fit Center   37 is at   6.110403 -0.745657 -1.062522
      ESP Fit Center   38 is at   5.852517 -0.409574 -1.062522
      ESP Fit Center   39 is at   5.516433 -0.151688 -1.062522
      ESP Fit Center   40 is at   5.852517 -2.704496 -1.062522
      ESP Fit Center   41 is at   6.110403 -2.368413 -1.062522
      ESP Fit Center   42 is at   6.272517 -1.977035 -1.062522
      ESP Fit Center   43 is at   6.385055 -1.557035 -1.497338
      ESP Fit Center   44 is at   6.332275 -1.139236 -1.497338
      ESP Fit Center   45 is at   6.177251 -0.747689 -1.497338
      ESP Fit Center   46 is at   5.929723 -0.406996 -1.497338
      ESP Fit Center   47 is at   5.605244 -0.138564 -1.497338
      ESP Fit Center   48 is at   5.224204  0.040740 -1.497338
      ESP Fit Center   49 is at   4.810544  0.119650 -1.497338
      ESP Fit Center   50 is at   5.605244 -2.975506 -1.497338
      ESP Fit Center   51 is at   5.929723 -2.707074 -1.497338
      ESP Fit Center   52 is at   6.177251 -2.366381 -1.497338
      ESP Fit Center   53 is at   6.332275 -1.974834 -1.497338
      ESP Fit Center   54 is at   6.327811 -1.557035 -1.932154
      ESP Fit Center   55 is at   6.272517 -1.137035 -1.932154
      ESP Fit Center   56 is at   6.110403 -0.745657 -1.932154
      ESP Fit Center   57 is at   5.852517 -0.409574 -1.932154
      ESP Fit Center   58 is at   5.516433 -0.151688 -1.932154
      ESP Fit Center   59 is at   5.125055  0.010426 -1.932154
      ESP Fit Center   60 is at   4.705055  0.065720 -1.932154
      ESP Fit Center   61 is at   4.285055  0.010426 -1.932154
      ESP Fit Center   62 is at   5.516433 -2.962382 -1.932154
      ESP Fit Center   63 is at   5.852517 -2.704496 -1.932154
      ESP Fit Center   64 is at   6.110403 -2.368413 -1.932154
      ESP Fit Center   65 is at   6.272517 -1.977035 -1.932154
      ESP Fit Center   66 is at   6.159978 -1.557035 -2.337338
      ESP Fit Center   67 is at   6.095340 -1.128189 -2.337338
      ESP Fit Center   68 is at   5.907169 -0.737448 -2.337338
      ESP Fit Center   69 is at   5.612185 -0.419531 -2.337338
      ESP Fit Center   70 is at   5.236598 -0.202686 -2.337338
      ESP Fit Center   71 is at   4.813782 -0.106181 -2.337338
      ESP Fit Center   72 is at   4.381305 -0.138590 -2.337338
      ESP Fit Center   73 is at   5.236598 -2.911384 -2.337338
      ESP Fit Center   74 is at   5.612185 -2.694539 -2.337338
      ESP Fit Center   75 is at   5.907169 -2.376622 -2.337338
      ESP Fit Center   76 is at   6.095340 -1.985881 -2.337338
      ESP Fit Center   77 is at   5.892995 -1.557035 -2.685278
      ESP Fit Center   78 is at   5.812776 -1.127902 -2.685278
      ESP Fit Center   79 is at   5.582953 -0.756725 -2.685278
      ESP Fit Center   80 is at   5.234566 -0.493635 -2.685278
      ESP Fit Center   81 is at   4.814665 -0.374163 -2.685278
      ESP Fit Center   82 is at   4.379960 -0.414444 -2.685278
      ESP Fit Center   83 is at   5.234566 -2.620435 -2.685278
      ESP Fit Center   84 is at   5.582953 -2.357345 -2.685278
      ESP Fit Center   85 is at   5.812776 -1.986168 -2.685278
      ESP Fit Center   86 is at   5.545055 -1.557035 -2.952261
      ESP Fit Center   87 is at   5.432517 -1.137035 -2.952261
      ESP Fit Center   88 is at   5.125055 -0.829574 -2.952261
      ESP Fit Center   89 is at   4.705055 -0.717035 -2.952261
      ESP Fit Center   90 is at   4.285055 -0.829574 -2.952261
      ESP Fit Center   91 is at   4.705055 -2.397035 -2.952261
      ESP Fit Center   92 is at   5.125055 -2.284496 -2.952261
      ESP Fit Center   93 is at   5.432517 -1.977035 -2.952261
      ESP Fit Center   94 is at   5.139871 -1.557035 -3.120094
      ESP Fit Center   95 is at   4.922463 -1.180473 -3.120094
      ESP Fit Center   96 is at   4.487647 -1.180473 -3.120094
      ESP Fit Center   97 is at   4.270239 -1.557035 -3.120094
      ESP Fit Center   98 is at   4.487647 -1.933597 -3.120094
      ESP Fit Center   99 is at   4.922463 -1.933597 -3.120094
      ESP Fit Center  100 is at   4.705055 -1.557035 -3.177338
      ESP Fit Center  101 is at   4.932563 -1.955739  0.633356
      ESP Fit Center  102 is at   5.250790 -1.955739  0.372194
      ESP Fit Center  103 is at   5.190640 -1.537387  0.372194
      ESP Fit Center  104 is at   5.511952 -1.955739  0.053968
      ESP Fit Center  105 is at   5.461214 -1.537873  0.053968
      ESP Fit Center  106 is at   5.311948 -1.144292  0.053968
      ESP Fit Center  107 is at   5.461214 -2.373604  0.053968
      ESP Fit Center  108 is at   5.660653 -2.372813 -0.309095
      ESP Fit Center  109 is at   5.658596 -2.767973 -0.703040
      ESP Fit Center  110 is at   2.280941 -3.440663 -1.112730
      ESP Fit Center  111 is at   2.858808 -3.804901 -1.522420
      ESP Fit Center  112 is at   5.456350 -3.132351 -1.522420
      ESP Fit Center  113 is at   3.870903 -0.018437 -1.916365
      ESP Fit Center  114 is at   3.451985 -3.870327 -1.916365
      ESP Fit Center  115 is at   3.870903 -3.893040 -1.916365
      ESP Fit Center  116 is at   4.674647 -3.669882 -1.916365
      ESP Fit Center  117 is at   5.021890 -3.434445 -1.916365
      ESP Fit Center  118 is at   5.310403 -3.129866 -1.916365
      ESP Fit Center  119 is at   3.976333 -0.222383 -2.279427
      ESP Fit Center  120 is at   3.555398 -0.222383 -2.279427
      ESP Fit Center  121 is at   3.146695 -0.323120 -2.279427
      ESP Fit Center  122 is at   2.773975 -0.518738 -2.279427
      ESP Fit Center  123 is at   3.976333 -3.689094 -2.279427
      ESP Fit Center  124 is at   4.385036 -3.588358 -2.279427
      ESP Fit Center  125 is at   4.757756 -3.392739 -2.279427
      ESP Fit Center  126 is at   5.072830 -3.113608 -2.279427
      ESP Fit Center  127 is at   3.977192 -0.485929 -2.597654
      ESP Fit Center  128 is at   3.554539 -0.485929 -2.597654
      ESP Fit Center  129 is at   3.149006 -0.605004 -2.597654
      ESP Fit Center  130 is at   3.977192 -3.425548 -2.597654
      ESP Fit Center  131 is at   4.382725 -3.306473 -2.597654
      ESP Fit Center  132 is at   4.738284 -3.077969 -2.597654
      ESP Fit Center  133 is at   3.873515 -0.794018 -2.858816
      ESP Fit Center  134 is at   4.285907 -3.000123 -2.858816
      ESP Fit Center  135 is at   4.628065 -2.741738 -2.858816
      ESP Fit Center  136 is at   4.461834 -2.357556 -3.052877
      ESP Fit Center  137 is at   3.958907 -2.879949  1.110958
      ESP Fit Center  138 is at   4.393723 -2.879949  1.053713
      ESP Fit Center  139 is at   4.176315 -2.503388  1.053713
      ESP Fit Center  140 is at   3.524091 -2.879949  1.053713
      ESP Fit Center  141 is at   3.741499 -3.256511  1.053713
      ESP Fit Center  142 is at   4.176315 -3.256511  1.053713
      ESP Fit Center  143 is at   4.798907 -2.879949  0.885880
      ESP Fit Center  144 is at   4.686369 -2.459949  0.885880
      ESP Fit Center  145 is at   3.231446 -3.299949  0.885880
      ESP Fit Center  146 is at   3.538907 -3.607411  0.885880
      ESP Fit Center  147 is at   3.958907 -3.719949  0.885880
      ESP Fit Center  148 is at   4.378907 -3.607411  0.885880
      ESP Fit Center  149 is at   4.686369 -3.299949  0.885880
      ESP Fit Center  150 is at   5.146847 -2.879949  0.618897
      ESP Fit Center  151 is at   5.066628 -2.450816  0.618897
      ESP Fit Center  152 is at   2.948901 -3.505319  0.618897
      ESP Fit Center  153 is at   3.243014 -3.827945  0.618897
      ESP Fit Center  154 is at   3.633812 -4.022540  0.618897
      ESP Fit Center  155 is at   4.068517 -4.062821  0.618897
      ESP Fit Center  156 is at   4.488418 -3.943349  0.618897
      ESP Fit Center  157 is at   4.836805 -3.680259  0.618897
      ESP Fit Center  158 is at   5.066628 -3.309083  0.618897
      ESP Fit Center  159 is at   5.413830 -2.879949  0.270958
      ESP Fit Center  160 is at   5.349192 -2.451103  0.270958
      ESP Fit Center  161 is at   2.892374 -3.869548  0.270958
      ESP Fit Center  162 is at   3.231446 -4.139949  0.270958
      ESP Fit Center  163 is at   3.635157 -4.298394  0.270958
      ESP Fit Center  164 is at   4.067634 -4.330804  0.270958
      ESP Fit Center  165 is at   4.490450 -4.234299  0.270958
      ESP Fit Center  166 is at   4.866037 -4.017454  0.270958
      ESP Fit Center  167 is at   5.161021 -3.699537  0.270958
      ESP Fit Center  168 is at   5.349192 -3.308795  0.270958
      ESP Fit Center  169 is at   5.581663 -2.879949 -0.134226
      ESP Fit Center  170 is at   2.553560 -3.691327 -0.134226
      ESP Fit Center  171 is at   2.811446 -4.027411 -0.134226
      ESP Fit Center  172 is at   3.147530 -4.285297 -0.134226
      ESP Fit Center  173 is at   3.538907 -4.447411 -0.134226
      ESP Fit Center  174 is at   3.958907 -4.502705 -0.134226
      ESP Fit Center  175 is at   4.378907 -4.447411 -0.134226
      ESP Fit Center  176 is at   4.770285 -4.285297 -0.134226
      ESP Fit Center  177 is at   5.106369 -4.027411 -0.134226
      ESP Fit Center  178 is at   5.364255 -3.691327 -0.134226
      ESP Fit Center  179 is at   5.526369 -3.299949 -0.134226
      ESP Fit Center  180 is at   5.638907 -2.879949 -0.569042
      ESP Fit Center  181 is at   2.599759 -3.867429 -0.569042
      ESP Fit Center  182 is at   2.888035 -4.174412 -0.569042
      ESP Fit Center  183 is at   3.243598 -4.400059 -0.569042
      ESP Fit Center  184 is at   3.644107 -4.530192 -0.569042
      ESP Fit Center  185 is at   4.064395 -4.556634 -0.569042
      ESP Fit Center  186 is at   4.478056 -4.477724 -0.569042
      ESP Fit Center  187 is at   4.859096 -4.298420 -0.569042
      ESP Fit Center  188 is at   5.183575 -4.029989 -0.569042
      ESP Fit Center  189 is at   5.431103 -3.689296 -0.569042
      ESP Fit Center  190 is at   5.586127 -3.297748 -0.569042
      ESP Fit Center  191 is at   2.553560 -3.691327 -1.003858
      ESP Fit Center  192 is at   2.811446 -4.027411 -1.003858
      ESP Fit Center  193 is at   3.147530 -4.285297 -1.003858
      ESP Fit Center  194 is at   3.538907 -4.447411 -1.003858
      ESP Fit Center  195 is at   3.958907 -4.502705 -1.003858
      ESP Fit Center  196 is at   4.378907 -4.447411 -1.003858
      ESP Fit Center  197 is at   4.770285 -4.285297 -1.003858
      ESP Fit Center  198 is at   5.106369 -4.027411 -1.003858
      ESP Fit Center  199 is at   5.364255 -3.691327 -1.003858
      ESP Fit Center  200 is at   5.526369 -3.299949 -1.003858
      ESP Fit Center  201 is at   2.892374 -3.869548 -1.409042
      ESP Fit Center  202 is at   3.231446 -4.139949 -1.409042
      ESP Fit Center  203 is at   3.635157 -4.298394 -1.409042
      ESP Fit Center  204 is at   4.067634 -4.330804 -1.409042
      ESP Fit Center  205 is at   4.490450 -4.234299 -1.409042
      ESP Fit Center  206 is at   4.866037 -4.017454 -1.409042
      ESP Fit Center  207 is at   5.161021 -3.699537 -1.409042
      ESP Fit Center  208 is at   5.349192 -3.308795 -1.409042
      ESP Fit Center  209 is at   3.633812 -4.022540 -1.756982
      ESP Fit Center  210 is at   4.068517 -4.062821 -1.756982
      ESP Fit Center  211 is at   4.488418 -3.943349 -1.756982
      ESP Fit Center  212 is at   4.836805 -3.680259 -1.756982
      ESP Fit Center  213 is at   1.465871 -2.157655 -1.508236
      ESP Fit Center  214 is at   1.521165 -2.577655 -1.508236
      ESP Fit Center  215 is at   1.683279 -2.969033 -1.508236
      ESP Fit Center  216 is at   1.941165 -3.305116 -1.508236
      ESP Fit Center  217 is at   2.277249 -3.563002 -1.508236
      ESP Fit Center  218 is at   2.668626 -3.725116 -1.508236
      ESP Fit Center  219 is at   1.729478 -1.170176 -1.943052
      ESP Fit Center  220 is at   1.526602 -1.539206 -1.943052
      ESP Fit Center  221 is at   1.421874 -1.947095 -1.943052
      ESP Fit Center  222 is at   1.421874 -2.368215 -1.943052
      ESP Fit Center  223 is at   1.526602 -2.776104 -1.943052
      ESP Fit Center  224 is at   1.729478 -3.145134 -1.943052
      ESP Fit Center  225 is at   2.017754 -3.452117 -1.943052
      ESP Fit Center  226 is at   2.373317 -3.677765 -1.943052
      ESP Fit Center  227 is at   2.773826 -3.807898 -1.943052
      ESP Fit Center  228 is at   3.194115 -3.834340 -1.943052
      ESP Fit Center  229 is at   2.668626 -0.590194 -2.377868
      ESP Fit Center  230 is at   2.277249 -0.752308 -2.377868
      ESP Fit Center  231 is at   1.941165 -1.010194 -2.377868
      ESP Fit Center  232 is at   1.683279 -1.346277 -2.377868
      ESP Fit Center  233 is at   1.521165 -1.737655 -2.377868
      ESP Fit Center  234 is at   1.465871 -2.157655 -2.377868
      ESP Fit Center  235 is at   1.521165 -2.577655 -2.377868
      ESP Fit Center  236 is at   1.683279 -2.969033 -2.377868
      ESP Fit Center  237 is at   1.941165 -3.305116 -2.377868
      ESP Fit Center  238 is at   2.277249 -3.563002 -2.377868
      ESP Fit Center  239 is at   2.668626 -3.725116 -2.377868
      ESP Fit Center  240 is at   3.088626 -3.780410 -2.377868
      ESP Fit Center  241 is at   3.508626 -3.725116 -2.377868
      ESP Fit Center  242 is at   3.197353 -0.706801 -2.783052
      ESP Fit Center  243 is at   2.764876 -0.739210 -2.783052
      ESP Fit Center  244 is at   2.361165 -0.897655 -2.783052
      ESP Fit Center  245 is at   2.022093 -1.168056 -2.783052
      ESP Fit Center  246 is at   1.777786 -1.526388 -2.783052
      ESP Fit Center  247 is at   1.649954 -1.940810 -2.783052
      ESP Fit Center  248 is at   1.649954 -2.374500 -2.783052
      ESP Fit Center  249 is at   1.777786 -2.788922 -2.783052
      ESP Fit Center  250 is at   2.022093 -3.147254 -2.783052
      ESP Fit Center  251 is at   2.361165 -3.417655 -2.783052
      ESP Fit Center  252 is at   2.764876 -3.576100 -2.783052
      ESP Fit Center  253 is at   3.197353 -3.608509 -2.783052
      ESP Fit Center  254 is at   3.620169 -3.512004 -2.783052
      ESP Fit Center  255 is at   3.995756 -3.295159 -2.783052
      ESP Fit Center  256 is at   3.966524 -1.357345 -3.130992
      ESP Fit Center  257 is at   3.618137 -1.094255 -3.130992
      ESP Fit Center  258 is at   3.198236 -0.974783 -3.130992
      ESP Fit Center  259 is at   2.763531 -1.015064 -3.130992
      ESP Fit Center  260 is at   2.372733 -1.209659 -3.130992
      ESP Fit Center  261 is at   2.078620 -1.532286 -3.130992
      ESP Fit Center  262 is at   1.920914 -1.939372 -3.130992
      ESP Fit Center  263 is at   1.920914 -2.375938 -3.130992
      ESP Fit Center  264 is at   2.078620 -2.783025 -3.130992
      ESP Fit Center  265 is at   2.372733 -3.105651 -3.130992
      ESP Fit Center  266 is at   2.763531 -3.300246 -3.130992
      ESP Fit Center  267 is at   3.198236 -3.340527 -3.130992
      ESP Fit Center  268 is at   3.618137 -3.221055 -3.130992
      ESP Fit Center  269 is at   3.966524 -2.957965 -3.130992
      ESP Fit Center  270 is at   4.196347 -2.586788 -3.130992
      ESP Fit Center  271 is at   3.928626 -2.157655 -3.397975
      ESP Fit Center  272 is at   3.816088 -1.737655 -3.397975
      ESP Fit Center  273 is at   3.508626 -1.430194 -3.397975
      ESP Fit Center  274 is at   3.088626 -1.317655 -3.397975
      ESP Fit Center  275 is at   2.668626 -1.430194 -3.397975
      ESP Fit Center  276 is at   2.361165 -1.737655 -3.397975
      ESP Fit Center  277 is at   2.248626 -2.157655 -3.397975
      ESP Fit Center  278 is at   2.361165 -2.577655 -3.397975
      ESP Fit Center  279 is at   2.668626 -2.885116 -3.397975
      ESP Fit Center  280 is at   3.088626 -2.997655 -3.397975
      ESP Fit Center  281 is at   3.508626 -2.885116 -3.397975
      ESP Fit Center  282 is at   3.816088 -2.577655 -3.397975
      ESP Fit Center  283 is at   3.523442 -2.157655 -3.565808
      ESP Fit Center  284 is at   3.306034 -1.781093 -3.565808
      ESP Fit Center  285 is at   2.871218 -1.781093 -3.565808
      ESP Fit Center  286 is at   2.653810 -2.157655 -3.565808
      ESP Fit Center  287 is at   2.871218 -2.534217 -3.565808
      ESP Fit Center  288 is at   3.306034 -2.534217 -3.565808
      ESP Fit Center  289 is at   3.088626 -2.157655 -3.623052
      ESP Fit Center  290 is at   3.494193 -0.949438  1.907281
      ESP Fit Center  291 is at   3.289349 -0.594637  1.907281
      ESP Fit Center  292 is at   3.888139 -0.949438  1.787779
      ESP Fit Center  293 is at   3.486321 -1.645407  1.787779
      ESP Fit Center  294 is at   3.780472 -1.351256  1.787779
      ESP Fit Center  295 is at   4.251201 -0.949438  1.593719
      ESP Fit Center  296 is at   3.604546 -1.993823  1.593719
      ESP Fit Center  297 is at   3.946704 -1.735437  1.593719
      ESP Fit Center  298 is at   4.172417 -1.370898  1.593719
      ESP Fit Center  299 is at   3.701364 -2.300173  1.332557
      ESP Fit Center  300 is at   4.056922 -2.071669  1.332557
      ESP Fit Center  301 is at   4.333701 -1.752249  1.332557
      ESP Fit Center  302 is at   4.509278 -1.367790  1.332557
      ESP Fit Center  303 is at   4.391468 -2.107308  1.014330
      ESP Fit Center  304 is at   4.630586 -1.760885  1.014330
      ESP Fit Center  305 is at   4.779852 -1.367304  1.014330
      ESP Fit Center  306 is at   4.979291 -1.366512  0.651268
      ESP Fit Center  307 is at   2.092614  0.487563 -1.319065
      ESP Fit Center  308 is at   1.777539  0.208431 -1.319065
      ESP Fit Center  309 is at   1.538421 -0.137992 -1.319065
      ESP Fit Center  310 is at   2.467644  0.401296 -1.637292
      ESP Fit Center  311 is at   2.112085  0.172793 -1.637292
      ESP Fit Center  312 is at   1.835306 -0.146628 -1.637292
      ESP Fit Center  313 is at   1.659729 -0.531087 -1.637292
      ESP Fit Center  314 is at   3.604546  0.094947 -1.898454
      ESP Fit Center  315 is at   3.192153  0.212282 -1.898454
      ESP Fit Center  316 is at   2.765222  0.172721 -1.898454
      ESP Fit Center  317 is at   2.381411 -0.018394 -1.898454
      ESP Fit Center  318 is at   2.092558 -0.335251 -1.898454
      ESP Fit Center  319 is at   1.937671 -0.735058 -1.898454
      ESP Fit Center  320 is at   3.084504 -0.145803 -2.092515
      ESP Fit Center  321 is at   2.682686 -0.253470 -2.092515
      ESP Fit Center  322 is at   2.388535 -0.547621 -2.092515
      ESP Fit Center  323 is at   3.620647  0.134105  2.037812
      ESP Fit Center  324 is at   4.028154  0.134105  1.994982
      ESP Fit Center  325 is at   3.824401  0.487016  1.994982
      ESP Fit Center  326 is at   3.416894  0.487016  1.994982
      ESP Fit Center  327 is at   3.416894 -0.218807  1.994982
      ESP Fit Center  328 is at   3.824401 -0.218807  1.994982
      ESP Fit Center  329 is at   4.417851  0.134105  1.868361
      ESP Fit Center  330 is at   4.311046  0.532707  1.868361
      ESP Fit Center  331 is at   4.019249  0.824503  1.868361
      ESP Fit Center  332 is at   3.620647  0.931309  1.868361
      ESP Fit Center  333 is at   3.620647 -0.663099  1.868361
      ESP Fit Center  334 is at   4.019249 -0.556294  1.868361
      ESP Fit Center  335 is at   4.311046 -0.264497  1.868361
      ESP Fit Center  336 is at   4.772706  0.134105  1.663486
      ESP Fit Center  337 is at   4.694910  0.550276  1.663486
      ESP Fit Center  338 is at   4.472029  0.910242  1.663486
      ESP Fit Center  339 is at   4.134164  1.165386  1.663486
      ESP Fit Center  340 is at   3.726946  1.281249  1.663486
      ESP Fit Center  341 is at   3.305371  1.242185  1.663486
      ESP Fit Center  342 is at   4.472029 -0.642032  1.663486
      ESP Fit Center  343 is at   4.694910 -0.282067  1.663486
      ESP Fit Center  344 is at   5.077211  0.134105  1.389308
      ESP Fit Center  345 is at   5.018210  0.544466  1.389308
      ESP Fit Center  346 is at   4.845987  0.921583  1.389308
      ESP Fit Center  347 is at   4.574494  1.234902  1.389308
      ESP Fit Center  348 is at   4.225726  1.459042  1.389308
      ESP Fit Center  349 is at   3.827938  1.575843  1.389308
      ESP Fit Center  350 is at   3.413357  1.575843  1.389308
      ESP Fit Center  351 is at   3.015569  1.459042  1.389308
      ESP Fit Center  352 is at   4.574494 -0.966693  1.389308
      ESP Fit Center  353 is at   4.845987 -0.653373  1.389308
      ESP Fit Center  354 is at   5.018210 -0.276257  1.389308
      ESP Fit Center  355 is at   5.318057  0.134105  1.057812
      ESP Fit Center  356 is at   5.264730  0.556233  1.057812
      ESP Fit Center  357 is at   5.108099  0.951838  1.057812
      ESP Fit Center  358 is at   4.858006  1.296062  1.057812
      ESP Fit Center  359 is at   4.530165  1.567275  1.057812
      ESP Fit Center  360 is at   4.145176  1.748437  1.057812
      ESP Fit Center  361 is at   3.727228  1.828165  1.057812
      ESP Fit Center  362 is at   3.302584  1.801449  1.057812
      ESP Fit Center  363 is at   4.858006 -1.027852  1.057812
      ESP Fit Center  364 is at   5.108099 -0.683629  1.057812
      ESP Fit Center  365 is at   5.264730 -0.288024  1.057812
      ESP Fit Center  366 is at   5.484718  0.134105  0.683486
      ESP Fit Center  367 is at   5.437982  0.548899  0.683486
      ESP Fit Center  368 is at   5.300117  0.942895  0.683486
      ESP Fit Center  369 is at   5.078036  1.296334  0.683486
      ESP Fit Center  370 is at   4.782876  1.591494  0.683486
      ESP Fit Center  371 is at   4.429437  1.813574  0.683486
      ESP Fit Center  372 is at   4.035442  1.951439  0.683486
      ESP Fit Center  373 is at   3.620647  1.998175  0.683486
      ESP Fit Center  374 is at   5.078036 -1.028124  0.683486
      ESP Fit Center  375 is at   5.300117 -0.674685  0.683486
      ESP Fit Center  376 is at   5.437982 -0.280690  0.683486
      ESP Fit Center  377 is at   5.569910  0.134105  0.282688
      ESP Fit Center  378 is at   5.524337  0.553139  0.282688
      ESP Fit Center  379 is at   5.389750  0.952579  0.282688
      ESP Fit Center  380 is at   5.172442  1.313748  0.282688
      ESP Fit Center  381 is at   4.882573  1.619759  0.282688
      ESP Fit Center  382 is at   4.533698  1.856302  0.282688
      ESP Fit Center  383 is at   4.142130  2.012317  0.282688
      ESP Fit Center  384 is at   3.726178  2.080509  0.282688
      ESP Fit Center  385 is at   5.172442 -1.045539  0.282688
      ESP Fit Center  386 is at   5.389750 -0.684370  0.282688
      ESP Fit Center  387 is at   5.524337 -0.284929  0.282688
      ESP Fit Center  388 is at   5.569910  0.134105 -0.127064
      ESP Fit Center  389 is at   5.524337  0.553139 -0.127064
      ESP Fit Center  390 is at   5.389750  0.952579 -0.127064
      ESP Fit Center  391 is at   5.172442  1.313748 -0.127064
      ESP Fit Center  392 is at   4.882573  1.619759 -0.127064
      ESP Fit Center  393 is at   4.533698  1.856302 -0.127064
      ESP Fit Center  394 is at   4.142130  2.012317 -0.127064
      ESP Fit Center  395 is at   3.726178  2.080509 -0.127064
      ESP Fit Center  396 is at   5.389750 -0.684370 -0.127064
      ESP Fit Center  397 is at   5.524337 -0.284929 -0.127064
      ESP Fit Center  398 is at   5.484718  0.134105 -0.527861
      ESP Fit Center  399 is at   5.437982  0.548899 -0.527861
      ESP Fit Center  400 is at   5.300117  0.942895 -0.527861
      ESP Fit Center  401 is at   5.078036  1.296334 -0.527861
      ESP Fit Center  402 is at   4.782876  1.591494 -0.527861
      ESP Fit Center  403 is at   4.429437  1.813574 -0.527861
      ESP Fit Center  404 is at   4.035442  1.951439 -0.527861
      ESP Fit Center  405 is at   3.620647  1.998175 -0.527861
      ESP Fit Center  406 is at   5.437982 -0.280690 -0.527861
      ESP Fit Center  407 is at   5.318057  0.134105 -0.902188
      ESP Fit Center  408 is at   5.264730  0.556233 -0.902188
      ESP Fit Center  409 is at   5.108099  0.951838 -0.902188
      ESP Fit Center  410 is at   4.858006  1.296062 -0.902188
      ESP Fit Center  411 is at   4.530165  1.567275 -0.902188
      ESP Fit Center  412 is at   4.145176  1.748437 -0.902188
      ESP Fit Center  413 is at   3.727228  1.828165 -0.902188
      ESP Fit Center  414 is at   3.302584  1.801449 -0.902188
      ESP Fit Center  415 is at   5.077211  0.134105 -1.233684
      ESP Fit Center  416 is at   5.018210  0.544466 -1.233684
      ESP Fit Center  417 is at   4.845987  0.921583 -1.233684
      ESP Fit Center  418 is at   4.574494  1.234902 -1.233684
      ESP Fit Center  419 is at   4.225726  1.459042 -1.233684
      ESP Fit Center  420 is at   3.827938  1.575843 -1.233684
      ESP Fit Center  421 is at   3.413357  1.575843 -1.233684
      ESP Fit Center  422 is at   3.015569  1.459042 -1.233684
      ESP Fit Center  423 is at   4.772706  0.134105 -1.507861
      ESP Fit Center  424 is at   4.694910  0.550276 -1.507861
      ESP Fit Center  425 is at   4.472029  0.910242 -1.507861
      ESP Fit Center  426 is at   4.134164  1.165386 -1.507861
      ESP Fit Center  427 is at   3.726946  1.281249 -1.507861
      ESP Fit Center  428 is at   3.305371  1.242185 -1.507861
      ESP Fit Center  429 is at   2.926377  1.053468 -1.507861
      ESP Fit Center  430 is at   2.641147  0.740586 -1.507861
      ESP Fit Center  431 is at   4.417851  0.134105 -1.712737
      ESP Fit Center  432 is at   4.311046  0.532707 -1.712737
      ESP Fit Center  433 is at   4.019249  0.824503 -1.712737
      ESP Fit Center  434 is at   3.620647  0.931309 -1.712737
      ESP Fit Center  435 is at   3.222045  0.824503 -1.712737
      ESP Fit Center  436 is at   2.930248  0.532707 -1.712737
      ESP Fit Center  437 is at   4.028154  0.134105 -1.839357
      ESP Fit Center  438 is at   3.824401  0.487016 -1.839357
      ESP Fit Center  439 is at   3.416894  0.487016 -1.839357
      ESP Fit Center  440 is at   3.620647  0.134105 -1.882188
      ESP Fit Center  441 is at  -4.260840  2.261643  0.167793
      ESP Fit Center  442 is at  -4.554953  1.939017  0.167793
      ESP Fit Center  443 is at  -4.712659  1.531930  0.167793
      ESP Fit Center  444 is at  -4.712659  1.095364  0.167793
      ESP Fit Center  445 is at  -3.868697  2.732092 -0.180146
      ESP Fit Center  446 is at  -4.272408  2.573647 -0.180146
      ESP Fit Center  447 is at  -4.611480  2.303246 -0.180146
      ESP Fit Center  448 is at  -4.855787  1.944914 -0.180146
      ESP Fit Center  449 is at  -4.983619  1.530492 -0.180146
      ESP Fit Center  450 is at  -4.983619  1.096802 -0.180146
      ESP Fit Center  451 is at  -3.544947  2.936402 -0.585330
      ESP Fit Center  452 is at  -3.964947  2.881108 -0.585330
      ESP Fit Center  453 is at  -4.356324  2.718994 -0.585330
      ESP Fit Center  454 is at  -4.692408  2.461108 -0.585330
      ESP Fit Center  455 is at  -4.950294  2.125025 -0.585330
      ESP Fit Center  456 is at  -5.112408  1.733647 -0.585330
      ESP Fit Center  457 is at  -5.167702  1.313647 -0.585330
      ESP Fit Center  458 is at  -5.112408  0.893647 -0.585330
      ESP Fit Center  459 is at  -3.439459  2.990332 -1.020146
      ESP Fit Center  460 is at  -3.859747  2.963890 -1.020146
      ESP Fit Center  461 is at  -4.260256  2.833756 -1.020146
      ESP Fit Center  462 is at  -4.615819  2.608109 -1.020146
      ESP Fit Center  463 is at  -4.904095  2.301126 -1.020146
      ESP Fit Center  464 is at  -5.106971  1.932096 -1.020146
      ESP Fit Center  465 is at  -5.211699  1.524207 -1.020146
      ESP Fit Center  466 is at  -5.211699  1.103087 -1.020146
      ESP Fit Center  467 is at  -5.106971  0.695198 -1.020146
      ESP Fit Center  468 is at  -3.544947  2.936402 -1.454962
      ESP Fit Center  469 is at  -3.964947  2.881108 -1.454962
      ESP Fit Center  470 is at  -4.356324  2.718994 -1.454962
      ESP Fit Center  471 is at  -4.692408  2.461108 -1.454962
      ESP Fit Center  472 is at  -4.950294  2.125025 -1.454962
      ESP Fit Center  473 is at  -5.112408  1.733647 -1.454962
      ESP Fit Center  474 is at  -5.167702  1.313647 -1.454962
      ESP Fit Center  475 is at  -5.112408  0.893647 -1.454962
      ESP Fit Center  476 is at  -4.950294  0.502269 -1.454962
      ESP Fit Center  477 is at  -3.013404  2.667996 -1.860146
      ESP Fit Center  478 is at  -3.436220  2.764501 -1.860146
      ESP Fit Center  479 is at  -3.868697  2.732092 -1.860146
      ESP Fit Center  480 is at  -4.272408  2.573647 -1.860146
      ESP Fit Center  481 is at  -4.611480  2.303246 -1.860146
      ESP Fit Center  482 is at  -4.855787  1.944914 -1.860146
      ESP Fit Center  483 is at  -4.983619  1.530492 -1.860146
      ESP Fit Center  484 is at  -4.983619  1.096802 -1.860146
      ESP Fit Center  485 is at  -4.855787  0.682380 -1.860146
      ESP Fit Center  486 is at  -4.611480  0.324048 -1.860146
      ESP Fit Center  487 is at  -3.015436  2.377047 -2.208085
      ESP Fit Center  488 is at  -3.435337  2.496519 -2.208085
      ESP Fit Center  489 is at  -3.870042  2.456238 -2.208085
      ESP Fit Center  490 is at  -4.260840  2.261643 -2.208085
      ESP Fit Center  491 is at  -4.554953  1.939017 -2.208085
      ESP Fit Center  492 is at  -4.712659  1.531930 -2.208085
      ESP Fit Center  493 is at  -4.712659  1.095364 -2.208085
      ESP Fit Center  494 is at  -4.554953  0.688277 -2.208085
      ESP Fit Center  495 is at  -4.260840  0.365651 -2.208085
      ESP Fit Center  496 is at  -3.870042  0.171056 -2.208085
      ESP Fit Center  497 is at  -3.124947  2.041108 -2.475069
      ESP Fit Center  498 is at  -3.544947  2.153647 -2.475069
[...]
 6996 Fit      -0.010617
 6997 Fit      -0.009628
 6998 Fit      -0.008905
 6999 Fit      -0.008352
 7000 Fit      -0.007852
 7001 Fit      -0.007300
 7002 Fit      -0.006627
 7003 Fit      -0.005828
 7004 Fit      -0.004967
 7005 Fit      -0.004158
 7006 Fit      -0.003507
 7007 Fit      -0.003028
 7008 Fit      -0.002593
 7009 Fit      -0.016571
 7010 Fit      -0.017055
 7011 Fit      -0.014612
 7012 Fit      -0.012546
 7013 Fit      -0.010916
 7014 Fit      -0.009701
 7015 Fit      -0.008839
 7016 Fit      -0.008245
 7017 Fit      -0.007814
 7018 Fit      -0.007435
 7019 Fit      -0.007004
 7020 Fit      -0.006445
 7021 Fit      -0.005725
 7022 Fit      -0.004875
 7023 Fit      -0.003987
 7024 Fit      -0.003205
 7025 Fit      -0.002672
 7026 Fit      -0.002448
 7027 Fit      -0.019636
 7028 Fit      -0.018623
 7029 Fit      -0.015416
 7030 Fit      -0.012876
 7031 Fit      -0.010931
 7032 Fit      -0.009497
 7033 Fit      -0.008488
 7034 Fit      -0.007816
 7035 Fit      -0.007382
 7036 Fit      -0.007079
 7037 Fit      -0.006800
 7038 Fit      -0.006443
 7039 Fit      -0.005931
 7040 Fit      -0.005222
 7041 Fit      -0.004332
 7042 Fit      -0.003341
 7043 Fit      -0.002400
 7044 Fit      -0.001704
 7045 Fit      -0.001438
 7046 Fit      -0.022496
 7047 Fit      -0.019653
 7048 Fit      -0.015852
 7049 Fit      -0.012956
 7050 Fit      -0.010772
 7051 Fit      -0.009160
 7052 Fit      -0.008017
 7053 Fit      -0.007252
 7054 Fit      -0.006775
 7055 Fit      -0.006492
 7056 Fit      -0.006303
 7057 Fit      -0.006106
 7058 Fit      -0.005807
 7059 Fit      -0.005329
 7060 Fit      -0.004622
 7061 Fit      -0.003684
 7062 Fit      -0.002572
 7063 Fit      -0.001419
 7064 Fit      -0.000433
 7065 Fit       0.000122
 7066 Fit      -0.024610
 7067 Fit      -0.019891
 7068 Fit      -0.015793
 7069 Fit      -0.012727
 7070 Fit      -0.010421
 7071 Fit      -0.008706
 7072 Fit      -0.007468
 7073 Fit      -0.006621
 7074 Fit      -0.006086
 7075 Fit      -0.005783
 7076 Fit      -0.005626
 7077 Fit      -0.005526
 7078 Fit      -0.005389
 7079 Fit      -0.005129
 7080 Fit      -0.004668
 7081 Fit      -0.003953
 7082 Fit      -0.002962
 7083 Fit      -0.001723
 7084 Fit      -0.000333
 7085 Fit       0.001024
 7086 Fit      -0.025454
 7087 Fit      -0.019146
 7088 Fit      -0.014996
 7089 Fit      -0.011922
 7090 Fit      -0.009616
 7091 Fit      -0.007897
 7092 Fit      -0.006653
 7093 Fit      -0.005800
 7094 Fit      -0.005266
 7095 Fit      -0.004977
 7096 Fit      -0.004853
 7097 Fit      -0.004807
 7098 Fit      -0.004748
 7099 Fit      -0.004581
 7100 Fit      -0.004220
 7101 Fit      -0.003589
 7102 Fit      -0.002631
 7103 Fit      -0.001327
 7104 Fit       0.000292
 7105 Fit       0.002109
 7106 Fit       0.003890
 7107 Fit      -0.017371
 7108 Fit      -0.013612
 7109 Fit      -0.010792
 7110 Fit      -0.008647
 7111 Fit      -0.007026
 7112 Fit      -0.005837
 7113 Fit      -0.005013
 7114 Fit      -0.004494
 7115 Fit      -0.004217
 7116 Fit      -0.004113
 7117 Fit      -0.004102
 7118 Fit      -0.004099
 7119 Fit      -0.004011
 7120 Fit      -0.003746
 7121 Fit      -0.003216
 7122 Fit      -0.002343
 7123 Fit      -0.001065
 7124 Fit       0.000650
 7125 Fit       0.002783
 7126 Fit       0.005227
 7127 Fit      -0.014707
 7128 Fit      -0.011671
 7129 Fit      -0.009308
 7130 Fit      -0.007457
 7131 Fit      -0.006029
 7132 Fit      -0.004966
 7133 Fit      -0.004225
 7134 Fit      -0.003761
 7135 Fit      -0.003524
 7136 Fit      -0.003451
 7137 Fit      -0.003468
 7138 Fit      -0.003493
 7139 Fit      -0.003433
 7140 Fit      -0.003193
 7141 Fit      -0.002677
 7142 Fit      -0.001789
 7143 Fit      -0.000441
 7144 Fit       0.001446
 7145 Fit       0.003932
 7146 Fit      -0.018689
 7147 Fit      -0.011464
 7148 Fit      -0.009415
 7149 Fit      -0.007675
 7150 Fit      -0.006230
 7151 Fit      -0.005068
 7152 Fit      -0.004180
 7153 Fit      -0.003551
 7154 Fit      -0.003156
 7155 Fit      -0.002960
 7156 Fit      -0.002909
 7157 Fit      -0.002941
 7158 Fit      -0.002976
 7159 Fit      -0.002928
 7160 Fit      -0.002704
 7161 Fit      -0.002203
 7162 Fit      -0.001321
 7163 Fit       0.000051
 7164 Fit       0.002028
 7165 Fit       0.004741
 7166 Fit      -0.013828
 7167 Fit      -0.008043
 7168 Fit      -0.007010
 7169 Fit      -0.005927
 7170 Fit      -0.004920
 7171 Fit      -0.004061
 7172 Fit      -0.003387
 7173 Fit      -0.002914
 7174 Fit      -0.002633
 7175 Fit      -0.002514
 7176 Fit      -0.002509
 7177 Fit      -0.002550
 7178 Fit      -0.002558
 7179 Fit      -0.002438
 7180 Fit      -0.002087
 7181 Fit      -0.001391
 7182 Fit      -0.000226
 7183 Fit       0.001549
 7184 Fit       0.004110
 7185 Fit      -0.008783
 7186 Fit      -0.004828
 7187 Fit      -0.004771
 7188 Fit      -0.004341
 7189 Fit      -0.003780
 7190 Fit      -0.003232
 7191 Fit      -0.002778
 7192 Fit      -0.002459
 7193 Fit      -0.002282
 7194 Fit      -0.002224
 7195 Fit      -0.002240
 7196 Fit      -0.002264
 7197 Fit      -0.002213
 7198 Fit      -0.001987
 7199 Fit      -0.001476
 7200 Fit      -0.000555
 7201 Fit       0.000919
 7202 Fit       0.003124
 7203 Fit       0.006306
 7204 Fit      -0.002133
 7205 Fit      -0.002875
 7206 Fit      -0.003001
 7207 Fit      -0.002833
 7208 Fit      -0.002568
 7209 Fit      -0.002321
 7210 Fit      -0.002150
 7211 Fit      -0.002069
 7212 Fit      -0.002059
 7213 Fit      -0.002072
 7214 Fit      -0.002033
 7215 Fit      -0.001852
 7216 Fit      -0.001418
 7217 Fit      -0.000606
 7218 Fit       0.000730
 7219 Fit       0.002767
 7220 Fit       0.005745
 7221 Fit      -0.000168
 7222 Fit      -0.001444
 7223 Fit      -0.001988
 7224 Fit      -0.002139
 7225 Fit      -0.002113
 7226 Fit      -0.002040
 7227 Fit      -0.001986
 7228 Fit      -0.001970
 7229 Fit      -0.001970
 7230 Fit      -0.001934
 7231 Fit      -0.001784
 7232 Fit      -0.001422
 7233 Fit      -0.000728
 7234 Fit       0.000432
 7235 Fit       0.002217
 7236 Fit       0.004830
 7237 Fit       0.001007
 7238 Fit      -0.000546
 7239 Fit      -0.001340
 7240 Fit      -0.001698
 7241 Fit      -0.001837
 7242 Fit      -0.001888
 7243 Fit      -0.001911
 7244 Fit      -0.001913
 7245 Fit      -0.001853
 7246 Fit      -0.001658
 7247 Fit      -0.001224
 7248 Fit      -0.000426
 7249 Fit       0.000879
 7250 Fit       0.002855
 7251 Fit       0.005692
 7252 Fit       0.001520
 7253 Fit      -0.000072
 7254 Fit      -0.000980
 7255 Fit      -0.001459
 7256 Fit      -0.001699
 7257 Fit      -0.001813
 7258 Fit      -0.001844
 7259 Fit      -0.001775
 7260 Fit      -0.001542
 7261 Fit      -0.001047
 7262 Fit      -0.000165
 7263 Fit       0.001243
 7264 Fit       0.003315
 7265 Fit       0.006177
 7266 Fit       0.001627
 7267 Fit       0.000131
 7268 Fit      -0.000792
 7269 Fit      -0.001318
 7270 Fit      -0.001592
 7271 Fit      -0.001697
 7272 Fit      -0.001646
 7273 Fit      -0.001396
 7274 Fit      -0.000859
 7275 Fit       0.000075
 7276 Fit       0.001523
 7277 Fit       0.003568
 7278 Fit       0.006213
 7279 Fit       0.003793
 7280 Fit       0.001582
 7281 Fit       0.000191
 7282 Fit      -0.000696
 7283 Fit      -0.001196
 7284 Fit      -0.001412
 7285 Fit      -0.001385
 7286 Fit      -0.001086
 7287 Fit      -0.000437
 7288 Fit       0.000658
 7289 Fit       0.002267
 7290 Fit       0.004355
 7291 Fit       0.006685
 7292 Fit       0.011113
 7293 Fit       0.008308
 7294 Fit       0.005811
 7295 Fit       0.003506
 7296 Fit       0.001559
 7297 Fit       0.000274
 7298 Fit      -0.000530
 7299 Fit      -0.000926
 7300 Fit      -0.000966
 7301 Fit      -0.000644
 7302 Fit       0.000095
 7303 Fit       0.001303
 7304 Fit       0.002939
 7305 Fit       0.004767
 7306 Fit       0.006312
 7307 Fit       0.008931
 7308 Fit       0.010999
 7309 Fit       0.012277
 7310 Fit       0.011943
 7311 Fit       0.010150
 7312 Fit       0.007775
 7313 Fit       0.005436
 7314 Fit       0.003320
 7315 Fit       0.001650
 7316 Fit       0.000436
 7317 Fit      -0.000215
 7318 Fit      -0.000329
 7319 Fit       0.000089
 7320 Fit       0.001049
 7321 Fit       0.002457
 7322 Fit       0.003979
 7323 Fit       0.005097
 7324 Fit       0.005545
 7325 Fit       0.005710
 7326 Fit       0.006275
 7327 Fit       0.007401
 7328 Fit       0.008466
 7329 Fit       0.008553
 7330 Fit       0.007348
 7331 Fit       0.005401
 7332 Fit       0.003373
 7333 Fit       0.001889
 7334 Fit       0.000801
 7335 Fit       0.000522
 7336 Fit       0.001061
 7337 Fit       0.002242
 7338 Fit       0.003558
 7339 Fit       0.004470
 7340 Fit       0.005108
 7341 Fit       0.005820
 7342 Fit       0.006112
 7343 Fit       0.005265
 7344 Fit       0.003573
 7345 Fit       0.002289
 7346 Fit       0.001587
 7347 Fit       0.002354
 7348 Fit       0.003577
 7349 Fit       0.004280
 7350 Fit       0.003797
 7351 Fit       0.002851
 7352 Fit       0.003708
 7353 Fit       0.005176
 7354 Fit       0.003227
 7355 Fit       0.001984
 7356 Fit       0.002503
 7357 Fit       0.004293
 7358 Fit       0.005693
 7359 Fit       0.001234
 7360 Fit       0.000536
 7361 Fit       0.000638
 7362 Fit       0.001443
 7363 Fit       0.002953
 7364 Fit       0.004941
 7365 Fit       0.006804
 7366 Fit       0.007939
 7367 Fit       0.008032
 7368 Fit      -0.000223
 7369 Fit      -0.000622
 7370 Fit      -0.000619
 7371 Fit      -0.000292
 7372 Fit       0.000407
 7373 Fit       0.001629
 7374 Fit       0.003434
 7375 Fit       0.005599
 7376 Fit       0.007707
 7377 Fit       0.009382
 7378 Fit      -0.001373
 7379 Fit      -0.001514
 7380 Fit      -0.001479
 7381 Fit      -0.001315
 7382 Fit       0.005340
 7383 Fit      -0.002064
 7384 Fit       0.019347
 7385 Fit       0.011969
 7386 Fit       0.014747
 7387 Fit       0.017591
 7388 Fit       0.021044
 7389 Fit       0.011369
 7390 Fit       0.014500
 7391 Fit       0.018036
 7392 Fit       0.010990
 7393 Fit       0.014389
 7394 Fit       0.018463
 7395 Fit       0.012607
 7396 Fit       0.016796
 7397 Fit       0.011416
 7398 Fit       0.015366
 7399 Fit       0.019738
 7400 Fit       0.016118
 7401 Fit       0.012871
 7402 Fit       0.009300
 7403 Fit       0.012861
 7404 Fit       0.015873
 7405 Fit       0.011403
 7406 Fit       0.010351
 7407 Fit       0.002568
 7408 Fit       0.003193
 7409 Fit       0.001627
 7410 Fit       0.001138
 7411 Fit       0.001263
 7412 Fit       0.002134
 7413 Fit       0.003863
 7414 Fit       0.000745
 7415 Fit       0.000149
 7416 Fit      -0.000111
 7417 Fit      -0.000115
 7418 Fit       0.000191
 7419 Fit      -0.001156
 7420 Fit      -0.001129
 7421 Fit      -0.000982
 7422 Fit      -0.001878
 7423 Fit       0.015095
 7424 Fit       0.009038
 7425 Fit       0.010710
 7426 Fit       0.009081
 7427 Fit       0.010806
 7428 Fit       0.012237
 7429 Fit       0.007159
 7430 Fit       0.009039
 7431 Fit       0.010743
 7432 Fit       0.012202
 7433 Fit       0.013537
 7434 Fit       0.008204
 7435 Fit       0.010105
 7436 Fit       0.011703
 7437 Fit       0.013058
 7438 Fit       0.014345
 7439 Fit       0.008553
 7440 Fit       0.010533
 7441 Fit       0.012139
 7442 Fit       0.013466
 7443 Fit       0.014677
 7444 Fit       0.008861
 7445 Fit       0.010864
 7446 Fit       0.012454
 7447 Fit       0.013743
 7448 Fit       0.014862
 7449 Fit       0.009942
 7450 Fit       0.011842
 7451 Fit       0.013330
 7452 Fit       0.014529
 7453 Fit       0.015573
 7454 Fit       0.010950
 7455 Fit       0.012694
 7456 Fit       0.014063
 7457 Fit       0.015170
 7458 Fit       0.016123
 7459 Fit       0.011305
 7460 Fit       0.013043
 7461 Fit       0.014413
 7462 Fit       0.015521
 7463 Fit       0.016447
 7464 Fit       0.010430
 7465 Fit       0.012497
 7466 Fit       0.014112
 7467 Fit       0.015419
 7468 Fit       0.016505
 7469 Fit       0.017404
 7470 Fit       0.011181
 7471 Fit       0.013241
 7472 Fit       0.014902
 7473 Fit       0.016315
 7474 Fit       0.017564
 7475 Fit       0.018643
 7476 Fit       0.012025
 7477 Fit       0.014086
 7478 Fit       0.015872
 7479 Fit       0.017556
 7480 Fit       0.019277
 7481 Fit       0.011752
 7482 Fit       0.014163
 7483 Fit       0.016377
 7484 Fit       0.018703
 7485 Fit      -0.005103
 7486 Fit      -0.008932
 7487 Fit      -0.006751
 7488 Fit      -0.003627
 7489 Fit      -0.002011
 7490 Fit      -0.003326
 7491 Fit      -0.007097
 7492 Fit      -0.013786
 7493 Fit      -0.011618
 7494 Fit      -0.008371
 7495 Fit      -0.005260
 7496 Fit      -0.002641
 7497 Fit      -0.000642
 7498 Fit       0.000539
 7499 Fit      -0.009659
 7500 Fit      -0.013202
 7501 Fit      -0.020084
 7502 Fit      -0.017298
 7503 Fit      -0.013587
 7504 Fit      -0.010036
 7505 Fit      -0.007013
 7506 Fit      -0.004427
 7507 Fit      -0.002138
 7508 Fit      -0.000161
 7509 Fit       0.001447
 7510 Fit      -0.017821
 7511 Fit      -0.020494
 7512 Fit      -0.024316
 7513 Fit      -0.019399
 7514 Fit      -0.014891
 7515 Fit      -0.011245
 7516 Fit      -0.008377
 7517 Fit      -0.005943
 7518 Fit      -0.003635
 7519 Fit      -0.001420
 7520 Fit       0.000543
 7521 Fit      -0.020146
 7522 Fit      -0.015479
 7523 Fit      -0.020322
 7524 Fit      -0.000930
 7525 Fit       0.000222
 7526 Fit       0.001480
 7527 Fit       0.000703
 7528 Fit      -0.002271
 7529 Fit       0.002384
 7530 Fit       0.003285
 7531 Fit       0.003565
 7532 Fit      -0.003709
 7533 Fit      -0.007175
 7534 Fit       0.002652
 7535 Fit       0.003597
 7536 Fit       0.004552
 7537 Fit       0.005366
 7538 Fit      -0.009764
 7539 Fit      -0.013216
 7540 Fit       0.002019
 7541 Fit       0.002814
 7542 Fit       0.003625
 7543 Fit       0.004659
 7544 Fit       0.005930
 7545 Fit      -0.017087
 7546 Fit       0.001290
 7547 Fit      -0.001765
 7548 Fit       0.003711
 7549 Fit       0.002963
 7550 Fit       0.000298
 7551 Fit      -0.005733
 7552 Fit       0.005684
 7553 Fit       0.005711
 7554 Fit       0.004688
 7555 Fit       0.002533
 7556 Fit      -0.000535
 7557 Fit      -0.003801
 7558 Fit       0.007340
 7559 Fit       0.007743
 7560 Fit       0.007493
 7561 Fit       0.006454
 7562 Fit       0.004638
 7563 Fit       0.002079
 7564 Fit      -0.001192
 7565 Fit      -0.004995
 7566 Fit      -0.008711
 7567 Fit       0.008281
 7568 Fit       0.009251
 7569 Fit       0.009794
 7570 Fit       0.009625
 7571 Fit       0.008724
 7572 Fit       0.007194
 7573 Fit       0.005092
 7574 Fit       0.002391
 7575 Fit      -0.001001
 7576 Fit      -0.005165
 7577 Fit      -0.010002
 7578 Fit      -0.014904
 7579 Fit       0.012256
 7580 Fit       0.011549
 7581 Fit       0.010206
 7582 Fit       0.008406
 7583 Fit       0.006193
 7584 Fit       0.003493
 7585 Fit       0.000150
 7586 Fit      -0.004060
 7587 Fit      -0.009373
 7588 Fit      -0.015867
 7589 Fit       0.013477
 7590 Fit       0.011646
 7591 Fit       0.009601
 7592 Fit       0.007319
 7593 Fit       0.004689
 7594 Fit       0.001527
 7595 Fit      -0.002429
 7596 Fit      -0.007553
 7597 Fit      -0.014328
 7598 Fit       0.014550
 7599 Fit       0.012134
 7600 Fit       0.009736
 7601 Fit       0.007198
 7602 Fit       0.004329
 7603 Fit       0.000875
 7604 Fit      -0.003532
 7605 Fit      -0.009478
 7606 Fit       0.014953
 7607 Fit       0.012236
 7608 Fit       0.009670
 7609 Fit       0.007017
 7610 Fit       0.004043
 7611 Fit       0.000466
 7612 Fit      -0.004148
 7613 Fit       0.015801
 7614 Fit       0.012861
 7615 Fit       0.010200
 7616 Fit       0.007529
 7617 Fit       0.004612
 7618 Fit       0.001192
 7619 Fit      -0.003123
 7620 Fit       0.014996
 7621 Fit       0.012072
 7622 Fit       0.009344
 7623 Fit       0.006548
 7624 Fit       0.003491
 7625 Fit       0.014830
 7626 Fit       0.011874
 7627 Fit       0.009066
 7628 Fit       0.014620
 7629 Fit       0.005408
 7630 Fit       0.002493
 7631 Fit       0.010689
 7632 Fit       0.007895
 7633 Fit       0.005628
 7634 Fit       0.017862
 7635 Fit       0.014327
 7636 Fit       0.011475
 7637 Fit       0.009222
 7638 Fit       0.007521
 7639 Fit       0.006316
 7640 Fit       0.017794
 7641 Fit       0.015020
 7642 Fit       0.012721
 7643 Fit       0.010937
 7644 Fit       0.009685
 7645 Fit       0.008950
 7646 Fit       0.020571
 7647 Fit       0.018395
 7648 Fit       0.016294
 7649 Fit       0.014485
 7650 Fit       0.013091
 7651 Fit       0.012176
 7652 Fit       0.011743
 7653 Fit       0.020842
 7654 Fit       0.019219
 7655 Fit       0.017611
 7656 Fit       0.016267
 7657 Fit       0.015333
 7658 Fit       0.014870
 7659 Fit       0.020127
 7660 Fit       0.019054
 7661 Fit       0.018410
 7662 Fit       0.022309
 7663 Fit       0.014105
 7664 Fit       0.022073
 7665 Fit       0.021323
 7666 Fit       0.022074
 7667 Fit       0.022708
 7668 Fit       0.022735
 7669 Fit       0.022461
 7670 Fit       0.022205
 7671 Fit       0.021932
 7672 Fit       0.022995
 7673 Fit       0.023574
 7674 Fit       0.023807
 7675 Fit       0.023933
 7676 Fit       0.024244
 7677 Fit       0.017274
 7678 Fit       0.018402
 7679 Fit       0.019607
 7680 Fit       0.020920
 7681 Fit       0.022246
 7682 Fit       0.023387
 7683 Fit       0.024216
 7684 Fit       0.024767
 7685 Fit       0.025221
 7686 Fit       0.025877
 7687 Fit       0.016947
 7688 Fit       0.016622
 7689 Fit       0.017187
 7690 Fit       0.018175
 7691 Fit       0.019244
 7692 Fit       0.020331
 7693 Fit       0.021453
 7694 Fit       0.022604
 7695 Fit       0.023708
 7696 Fit       0.024657
 7697 Fit       0.025419
 7698 Fit       0.026108
 7699 Fit       0.026995
 7700 Fit       0.019953
 7701 Fit       0.019778
 7702 Fit       0.020322
 7703 Fit       0.021230
 7704 Fit       0.022274
 7705 Fit       0.023366
 7706 Fit       0.024436
 7707 Fit       0.025409
 7708 Fit       0.026286
 7709 Fit       0.027233
 7710 Fit       0.023051
 7711 Fit       0.022256
 7712 Fit       0.022446
 7713 Fit       0.023284
 7714 Fit       0.024383
 7715 Fit       0.025513
 7716 Fit       0.026589
 7717 Fit       0.024704
 7718 Fit       0.024257
 7719 Fit       0.025178
 7720 Fit       0.026468
 7721 Fit       0.025851
 -----------------------------------------------------------------
 Leave Link  602 at Wed Nov 29 20:24:32 2017, MaxMem=  2147483648 cpu:         1.3

 Test job not archived.
 1\1\GINC-LAC-347\FOpt\RHF\6-31G(d)\C9H9Cl2N1O1\ROOT\29-Nov-2017\0\\#HF
 /6-31G* SCF=tight Test Pop=MK iop(6/33=2) iop(6/42=6) opt\\remark line
  goes here\\0,1\H,18.8373294697,-11.9903890669,20.1621167155\C,17.9908
 430289,-12.0311132208,20.8325720897\H,18.2195354894,-11.4862570844,21.
 7415299598\H,17.8103280622,-13.0691368594,21.0929308973\C,16.772590363
 ,-11.4905147172,20.1151510601\O,16.6362180255,-11.586454307,18.9268626
 591\H,10.7804179128,-10.1994626903,24.1813874076\H,11.3666898011,-12.3
 620432704,23.150889579\C,11.5368981734,-10.2518218693,23.4221590567\C,
 11.8680720439,-11.4643896459,22.8436477134\Cl,11.7912340607,-7.5749726
 191,23.7184551204\C,12.1922642591,-9.1111896258,23.004962236\C,12.8429
 708299,-11.525286744,21.8651592855\Cl,13.2060995804,-13.081514445,21.1
 705959805\C,13.1651505123,-9.1722694546,22.024730266\C,13.5105029124,-
 10.3816881188,21.4347387352\H,13.6581915112,-8.2708902645,21.712615315
 1\H,14.3006937929,-11.0310843722,19.5420721547\C,14.5895683057,-10.407
 3995963,20.3737170224\H,14.7294406771,-9.4032462308,19.988538748\N,15.
 8317211077,-10.9261357408,20.9100666405\H,16.0142400806,-10.8127400566
 ,21.8801013575\\Version=ES64L-G09RevD.01\State=1-A\HF=-1394.3494582\RM
 SD=4.501e-09\RMSF=3.380e-06\Dipole=-0.0564182,0.1485482,1.4536502\Quad
 rupole=6.4716557,0.2076014,-6.6792571,2.8741644,5.320673,-5.8560053\PG
 =C01 [X(C9H9Cl2N1O1)]\\@


 ROSE IS A RED
 TY COBB IS BLUE
 'CAUSE PETE JUST HIT
 NO. 4592.
 Job cpu time:       0 days  0 hours 15 minutes 48.9 seconds.
 File lengths (MBytes):  RWF=    134 Int=      0 D2E=      0 Chk=      5 Scr=      2
 Normal termination of Gaussian 09 at Wed Nov 29 20:24:32 2017.
