 Entering Gaussian System, Link 0=g09
 Initial command:
 /opt/software/Gaussian/g09/l1.exe "/mnt/ls15/scratch/users/songlin3/Gau-24065.inp" -scrdir="/mnt/ls15/scratch/users/songlin3/"
 Entering Link 1 = /opt/software/Gaussian/g09/l1.exe PID=     24066.
  
 Copyright (c) 1988,1990,1992,1993,1995,1998,2003,2009,2013,
            Gaussian, Inc.  All Rights Reserved.
  
 This is part of the Gaussian(R) 09 program.  It is based on
 the Gaussian(R) 03 system (copyright 2003, Gaussian, Inc.),
 the Gaussian(R) 98 system (copyright 1998, Gaussian, Inc.),
 the Gaussian(R) 94 system (copyright 1995, Gaussian, Inc.),
 the Gaussian 92(TM) system (copyright 1992, Gaussian, Inc.),
 the Gaussian 90(TM) system (copyright 1990, Gaussian, Inc.),
 the Gaussian 88(TM) system (copyright 1988, Gaussian, Inc.),
 the Gaussian 86(TM) system (copyright 1986, Carnegie Mellon
 University), and the Gaussian 82(TM) system (copyright 1983,
 Carnegie Mellon University). Gaussian is a federally registered
 trademark of Gaussian, Inc.
  
 This software contains proprietary and confidential information,
 including trade secrets, belonging to Gaussian, Inc.
  
 This software is provided under written license and may be
 used, copied, transmitted, or stored only in accord with that
 written license.
  
 The following legend is applicable only to US Government
 contracts under FAR:
  
                    RESTRICTED RIGHTS LEGEND
  
 Use, reproduction and disclosure by the US Government is
 subject to restrictions as set forth in subparagraphs (a)
 and (c) of the Commercial Computer Software - Restricted
 Rights clause in FAR 52.227-19.
  
 Gaussian, Inc.
 340 Quinnipiac St., Bldg. 40, Wallingford CT 06492
  
  
 ---------------------------------------------------------------
 Warning -- This program may not be used in any manner that
 competes with the business of Gaussian, Inc. or will provide
 assistance to any competitor of Gaussian, Inc.  The licensee
 of this program is prohibited from giving any competitor of
 Gaussian, Inc. access to this program.  By using this program,
 the user acknowledges that Gaussian, Inc. is engaged in the
 business of creating and licensing software in the field of
 computational chemistry and represents and warrants to the
 licensee that it is not a competitor of Gaussian, Inc. and that
 it will not use this program in any manner prohibited above.
 ---------------------------------------------------------------
  

 Cite this work as:
 Gaussian 09, Revision D.01,
 M. J. Frisch, G. W. Trucks, H. B. Schlegel, G. E. Scuseria, 
 M. A. Robb, J. R. Cheeseman, G. Scalmani, V. Barone, B. Mennucci, 
 G. A. Petersson, H. Nakatsuji, M. Caricato, X. Li, H. P. Hratchian, 
 A. F. Izmaylov, J. Bloino, G. Zheng, J. L. Sonnenberg, M. Hada, 
 M. Ehara, K. Toyota, R. Fukuda, J. Hasegawa, M. Ishida, T. Nakajima, 
 Y. Honda, O. Kitao, H. Nakai, T. Vreven, J. A. Montgomery, Jr., 
 J. E. Peralta, F. Ogliaro, M. Bearpark, J. J. Heyd, E. Brothers, 
 K. N. Kudin, V. N. Staroverov, T. Keith, R. Kobayashi, J. Normand, 
 K. Raghavachari, A. Rendell, J. C. Burant, S. S. Iyengar, J. Tomasi, 
 M. Cossi, N. Rega, J. M. Millam, M. Klene, J. E. Knox, J. B. Cross, 
 V. Bakken, C. Adamo, J. Jaramillo, R. Gomperts, R. E. Stratmann, 
 O. Yazyev, A. J. Austin, R. Cammi, C. Pomelli, J. W. Ochterski, 
 R. L. Martin, K. Morokuma, V. G. Zakrzewski, G. A. Voth, 
 P. Salvador, J. J. Dannenberg, S. Dapprich, A. D. Daniels, 
 O. Farkas, J. B. Foresman, J. V. Ortiz, J. Cioslowski, 
 and D. J. Fox, Gaussian, Inc., Wallingford CT, 2013.
 
 ******************************************
 Gaussian 09:  ES64L-G09RevD.01 24-Apr-2013
                29-Nov-2017 
 ******************************************
 %RWF=myrwf
 %NoSave
 %chk=esp.chk
 %NprocShared=4
 Will use up to    4 processors via shared memory.
 %Mem=16GB
 ----------------------------------------------------------------------
 #HF/6-31G* SCF=tight Test Pop=MK iop(6/33=2) iop(6/42=6) opt # iop(6/5
 0=1)
 ----------------------------------------------------------------------
 1/18=20,19=15,38=1/1,3;
 2/9=110,12=2,17=6,18=5,40=1/2;
 3/5=1,6=6,7=1,11=9,16=1,25=1,30=1,71=1/1,2,3;
 4//1;
 5/5=2,32=2,38=5/2;
 6/7=2,8=2,9=2,10=2,15=8,20=1,28=1,33=2,42=6,50=1/1,2;
 7//1,2,3,16;
 1/18=20,19=15/3(2);
 2/9=110/2;
 99//99;
 2/9=110/2;
 3/5=1,6=6,7=1,11=9,16=1,25=1,30=1,71=1/1,2,3;
 4/5=5,16=3,69=1/1;
 5/5=2,32=2,38=5/2;
 7//1,2,3,16;
 1/18=20,19=15/3(-5);
 2/9=110/2;
 6/7=2,8=2,9=2,10=2,15=8,19=2,20=1,28=1,33=2,42=6,50=1/1,2;
 99/9=1/99;
 ---------------------
 remark line goes here
 ---------------------
 Symbolic Z-matrix:
 Charge =  0 Multiplicity = 1
 H                    -4.39471   0.67932   0.80428 
 C                    -3.46472   0.26831   1.17024 
 H                    -3.65417  -0.67245   1.67404 
 H                    -3.0448    0.96491   1.88945 
 C                    -2.50365   0.12615   0.00873 
 O                    -2.54793   0.86111  -0.94108 
 H                     4.1281    1.15319   0.75293 
 H                     3.85932  -1.2962    0.78616 
 C                     3.20194   0.70628   0.43808 
 C                     3.05098  -0.66783   0.45647 
 H                     2.2667    2.57612  -0.01627 
 C                     2.1527    1.50682   0.00609 
 C                     1.854    -1.23996   0.04663 
 H                     1.74737  -2.3115    0.05991 
 C                     0.9621    0.93482  -0.40236 
 C                     0.79964  -0.4489   -0.38385 
 H                     0.1523    1.5561   -0.74126 
 H                    -0.83928  -0.64966  -1.75693 
 H                    -0.38352  -2.1373   -0.96334 
 C                    -0.51302  -1.07098  -0.81856 
 N                    -1.59434  -0.87052   0.12992 
 H                    -1.53323  -1.34607   1.00136 
 

 GradGradGradGradGradGradGradGradGradGradGradGradGradGradGradGradGradGrad
 Berny optimization.
 Initialization pass.
                           ----------------------------
                           !    Initial Parameters    !
                           ! (Angstroms and Degrees)  !
 --------------------------                            --------------------------
 ! Name  Definition              Value          Derivative Info.                !
 --------------------------------------------------------------------------------
 ! R1    R(1,2)                  1.0806         estimate D2E/DX2                !
 ! R2    R(2,3)                  1.0839         estimate D2E/DX2                !
 ! R3    R(2,4)                  1.0857         estimate D2E/DX2                !
 ! R4    R(2,5)                  1.5143         estimate D2E/DX2                !
 ! R5    R(5,6)                  1.2018         estimate D2E/DX2                !
 ! R6    R(5,21)                 1.3546         estimate D2E/DX2                !
 ! R7    R(7,9)                  1.0755         estimate D2E/DX2                !
 ! R8    R(8,10)                 1.0756         estimate D2E/DX2                !
 ! R9    R(9,10)                 1.3825         estimate D2E/DX2                !
 ! R10   R(9,12)                 1.3887         estimate D2E/DX2                !
 ! R11   R(10,13)                1.3885         estimate D2E/DX2                !
 ! R12   R(11,12)                1.0756         estimate D2E/DX2                !
 ! R13   R(12,15)                1.3826         estimate D2E/DX2                !
 ! R14   R(13,14)                1.0769         estimate D2E/DX2                !
 ! R15   R(13,16)                1.3866         estimate D2E/DX2                !
 ! R16   R(15,16)                1.3933         estimate D2E/DX2                !
 ! R17   R(15,17)                1.0755         estimate D2E/DX2                !
 ! R18   R(16,20)                1.5163         estimate D2E/DX2                !
 ! R19   R(18,20)                1.0791         estimate D2E/DX2                !
 ! R20   R(19,20)                1.0839         estimate D2E/DX2                !
 ! R21   R(20,21)                1.4523         estimate D2E/DX2                !
 ! R22   R(21,22)                0.9946         estimate D2E/DX2                !
 ! A1    A(1,2,3)              109.7014         estimate D2E/DX2                !
 ! A2    A(1,2,4)              108.2489         estimate D2E/DX2                !
 ! A3    A(1,2,5)              108.7931         estimate D2E/DX2                !
 ! A4    A(3,2,4)              108.4561         estimate D2E/DX2                !
 ! A5    A(3,2,5)              112.7059         estimate D2E/DX2                !
 ! A6    A(4,2,5)              108.8366         estimate D2E/DX2                !
 ! A7    A(2,5,6)              121.6973         estimate D2E/DX2                !
 ! A8    A(2,5,21)             115.2455         estimate D2E/DX2                !
 ! A9    A(6,5,21)             123.0533         estimate D2E/DX2                !
 ! A10   A(7,9,10)             120.2092         estimate D2E/DX2                !
 ! A11   A(7,9,12)             120.1458         estimate D2E/DX2                !
 ! A12   A(10,9,12)            119.6446         estimate D2E/DX2                !
 ! A13   A(8,10,9)             120.1766         estimate D2E/DX2                !
 ! A14   A(8,10,13)            119.8407         estimate D2E/DX2                !
 ! A15   A(9,10,13)            119.9826         estimate D2E/DX2                !
 ! A16   A(9,12,11)            119.9663         estimate D2E/DX2                !
 ! A17   A(9,12,15)            120.2689         estimate D2E/DX2                !
 ! A18   A(11,12,15)           119.7641         estimate D2E/DX2                !
 ! A19   A(10,13,14)           119.4519         estimate D2E/DX2                !
 ! A20   A(10,13,16)           120.7999         estimate D2E/DX2                !
 ! A21   A(14,13,16)           119.7476         estimate D2E/DX2                !
 ! A22   A(12,15,16)           120.4868         estimate D2E/DX2                !
 ! A23   A(12,15,17)           120.1667         estimate D2E/DX2                !
 ! A24   A(16,15,17)           119.3462         estimate D2E/DX2                !
 ! A25   A(13,16,15)           118.8169         estimate D2E/DX2                !
 ! A26   A(13,16,20)           120.8789         estimate D2E/DX2                !
 ! A27   A(15,16,20)           120.3028         estimate D2E/DX2                !
 ! A28   A(16,20,18)           110.5405         estimate D2E/DX2                !
 ! A29   A(16,20,19)           109.7851         estimate D2E/DX2                !
 ! A30   A(16,20,21)           113.6234         estimate D2E/DX2                !
 ! A31   A(18,20,19)           107.7024         estimate D2E/DX2                !
 ! A32   A(18,20,21)           106.7929         estimate D2E/DX2                !
 ! A33   A(19,20,21)           108.1798         estimate D2E/DX2                !
 ! A34   A(5,21,20)            122.8851         estimate D2E/DX2                !
 ! A35   A(5,21,22)            118.1266         estimate D2E/DX2                !
 ! A36   A(20,21,22)           117.4174         estimate D2E/DX2                !
 ! D1    D(1,2,5,6)             29.4732         estimate D2E/DX2                !
 ! D2    D(1,2,5,21)          -151.2161         estimate D2E/DX2                !
 ! D3    D(3,2,5,6)            151.3712         estimate D2E/DX2                !
 ! D4    D(3,2,5,21)           -29.318          estimate D2E/DX2                !
 ! D5    D(4,2,5,6)            -88.275          estimate D2E/DX2                !
 ! D6    D(4,2,5,21)            91.0357         estimate D2E/DX2                !
 ! D7    D(2,5,21,20)         -173.6707         estimate D2E/DX2                !
 ! D8    D(2,5,21,22)           -8.3465         estimate D2E/DX2                !
 ! D9    D(6,5,21,20)            5.6296         estimate D2E/DX2                !
 ! D10   D(6,5,21,22)          170.9538         estimate D2E/DX2                !
 ! D11   D(7,9,10,8)             0.019          estimate D2E/DX2                !
 ! D12   D(7,9,10,13)         -179.8825         estimate D2E/DX2                !
 ! D13   D(12,9,10,8)          179.7837         estimate D2E/DX2                !
 ! D14   D(12,9,10,13)          -0.1179         estimate D2E/DX2                !
 ! D15   D(7,9,12,11)            0.1545         estimate D2E/DX2                !
 ! D16   D(7,9,12,15)          179.84           estimate D2E/DX2                !
 ! D17   D(10,9,12,11)        -179.6104         estimate D2E/DX2                !
 ! D18   D(10,9,12,15)           0.0751         estimate D2E/DX2                !
 ! D19   D(8,10,13,14)          -0.1964         estimate D2E/DX2                !
 ! D20   D(8,10,13,16)        -179.9126         estimate D2E/DX2                !
 ! D21   D(9,10,13,14)         179.7054         estimate D2E/DX2                !
 ! D22   D(9,10,13,16)          -0.0107         estimate D2E/DX2                !
 ! D23   D(9,12,15,16)           0.0967         estimate D2E/DX2                !
 ! D24   D(9,12,15,17)        -179.6943         estimate D2E/DX2                !
 ! D25   D(11,12,15,16)        179.7828         estimate D2E/DX2                !
 ! D26   D(11,12,15,17)         -0.0081         estimate D2E/DX2                !
 ! D27   D(10,13,16,15)          0.1795         estimate D2E/DX2                !
 ! D28   D(10,13,16,20)       -179.38           estimate D2E/DX2                !
 ! D29   D(14,13,16,15)       -179.5358         estimate D2E/DX2                !
 ! D30   D(14,13,16,20)          0.9046         estimate D2E/DX2                !
 ! D31   D(12,15,16,13)         -0.2221         estimate D2E/DX2                !
 ! D32   D(12,15,16,20)        179.34           estimate D2E/DX2                !
 ! D33   D(17,15,16,13)        179.5705         estimate D2E/DX2                !
 ! D34   D(17,15,16,20)         -0.8673         estimate D2E/DX2                !
 ! D35   D(13,16,20,18)       -132.4557         estimate D2E/DX2                !
 ! D36   D(13,16,20,19)        -13.7784         estimate D2E/DX2                !
 ! D37   D(13,16,20,21)        107.5027         estimate D2E/DX2                !
 ! D38   D(15,16,20,18)         47.9913         estimate D2E/DX2                !
 ! D39   D(15,16,20,19)        166.6686         estimate D2E/DX2                !
 ! D40   D(15,16,20,21)        -72.0503         estimate D2E/DX2                !
 ! D41   D(16,20,21,5)          96.5194         estimate D2E/DX2                !
 ! D42   D(16,20,21,22)        -68.9022         estimate D2E/DX2                !
 ! D43   D(18,20,21,5)         -25.6223         estimate D2E/DX2                !
 ! D44   D(18,20,21,22)        168.9561         estimate D2E/DX2                !
 ! D45   D(19,20,21,5)        -141.3064         estimate D2E/DX2                !
 ! D46   D(19,20,21,22)         53.272          estimate D2E/DX2                !
 --------------------------------------------------------------------------------
 Trust Radius=3.00D-01 FncErr=1.00D-07 GrdErr=1.00D-07
 Number of steps in this run=    114 maximum allowed number of steps=    132.
 GradGradGradGradGradGradGradGradGradGradGradGradGradGradGradGradGradGrad

                          Input orientation:                          
 ---------------------------------------------------------------------
 Center     Atomic      Atomic             Coordinates (Angstroms)
 Number     Number       Type             X           Y           Z
 ---------------------------------------------------------------------
      1          1           0       -4.394714    0.679323    0.804280
      2          6           0       -3.464716    0.268307    1.170239
      3          1           0       -3.654169   -0.672453    1.674044
      4          1           0       -3.044800    0.964905    1.889447
      5          6           0       -2.503652    0.126151    0.008728
      6          8           0       -2.547931    0.861112   -0.941076
      7          1           0        4.128104    1.153185    0.752934
      8          1           0        3.859316   -1.296200    0.786155
      9          6           0        3.201935    0.706281    0.438078
     10          6           0        3.050976   -0.667829    0.456469
     11          1           0        2.266701    2.576117   -0.016271
     12          6           0        2.152696    1.506818    0.006091
     13          6           0        1.854000   -1.239957    0.046630
     14          1           0        1.747370   -2.311503    0.059910
     15          6           0        0.962103    0.934821   -0.402360
     16          6           0        0.799641   -0.448901   -0.383845
     17          1           0        0.152295    1.556103   -0.741255
     18          1           0       -0.839283   -0.649661   -1.756929
     19          1           0       -0.383524   -2.137296   -0.963339
     20          6           0       -0.513021   -1.070979   -0.818558
     21          7           0       -1.594342   -0.870518    0.129920
     22          1           0       -1.533226   -1.346065    1.001363
 ---------------------------------------------------------------------
                    Distance matrix (angstroms):
                    1          2          3          4          5
     1  H    0.000000
     2  C    1.080628   0.000000
     3  H    1.769801   1.083855   0.000000
     4  H    1.755395   1.085743   1.760304   0.000000
     5  C    2.124857   1.514252   2.175945   2.129191   0.000000
     6  O    2.547533   2.376881   3.227141   2.875676   1.201772
     7  H    8.536135   7.655591   8.046438   7.264824   6.751950
     8  H    8.487169   7.499110   7.591434   7.348242   6.566189
     9  C    7.605518   6.721020   7.101738   6.418338   5.751053
    10  C    7.574569   6.621183   6.814799   6.471301   5.628922
    11  H    6.974638   6.291497   6.961830   5.868544   5.362763
    12  C    6.647588   5.868941   6.422692   5.554697   4.856730
    13  C    6.580585   5.641462   5.771522   5.679404   4.566927
    14  H    6.871996   5.920650   5.870991   6.086620   4.900609
    15  C    5.496976   4.744896   5.310814   4.616119   3.582513
    16  C    5.446637   4.595030   4.911345   4.684702   3.375877
    17  H    4.881876   4.288939   5.028847   4.182287   3.108262
    18  H    4.578982   4.037806   4.437981   4.557103   2.547460
    19  H    5.210323   4.453406   4.449570   4.984419   3.250085
    20  C    4.556830   3.802828   4.029727   4.229423   2.465793
    21  N    3.270910   2.424352   2.581944   2.927207   1.354578
    22  H    3.511289   2.522968   2.324791   2.900712   2.023480
                    6          7          8          9         10
     6  O    0.000000
     7  H    6.893796   0.000000
     8  H    6.977832   2.464313   0.000000
     9  C    5.914981   1.075475   2.136174   0.000000
    10  C    5.969803   2.136396   1.075619   1.382500   0.000000
    11  H    5.193957   2.466016   4.263232   2.139482   3.370720
    12  C    4.838384   2.141277   3.373123   1.388659   2.395587
    13  C    4.976651   3.376025   2.138072   2.399584   1.388542
    14  H    5.432961   4.260545   2.453281   3.371319   2.135020
    15  C    3.551899   3.377270   3.844979   2.403209   2.769380
    16  C    3.637702   3.864921   3.383552   2.789448   2.412999
    17  H    2.795382   4.266380   4.920429   3.378362   3.844837
    18  H    2.422298   5.850179   5.381647   4.794588   4.475888
    19  H    3.698054   5.841887   4.665819   4.785960   3.996371
    20  C    2.808709   5.381128   4.662956   4.305657   3.806612
    21  N    2.248312   6.101632   5.509468   5.058214   4.661190
    22  H    3.110358   6.193434   5.397065   5.191451   4.666028
                   11         12         13         14         15
    11  H    0.000000
    12  C    1.075592   0.000000
    13  C    3.838841   2.763265   0.000000
    14  H    4.915723   3.840151   1.076920   0.000000
    15  C    2.131876   1.382579   2.393059   3.371788   0.000000
    16  C    3.382027   2.409906   1.386633   2.136444   1.393350
    17  H    2.456978   2.136015   3.366677   4.259637   1.075467
    18  H    4.804443   4.087858   3.294700   3.571190   2.755074
    19  H    5.489708   4.544422   2.613765   2.370252   3.400487
    20  C    4.655301   3.798833   2.525845   2.723963   2.524370
    21  N    5.177675   4.439297   3.469076   3.639832   3.174584
    22  H    5.555046   4.766081   3.520806   3.546930   3.660539
                   16         17         18         19         20
    16  C    0.000000
    17  H    2.137017   0.000000
    18  H    2.147495   2.623016   0.000000
    19  H    2.141581   3.738665   1.746585   0.000000
    20  C    1.516258   2.711122   1.079118   1.083865   0.000000
    21  N    2.484526   3.114189   2.044283   2.065435   1.452257
    22  H    2.857617   3.781571   2.928261   2.409962   2.104425
                   21         22
    21  N    0.000000
    22  H    0.994632   0.000000
 Stoichiometry    C9H11NO
 Framework group  C1[X(C9H11NO)]
 Deg. of freedom    60
 Full point group                 C1      NOp   1
 Largest Abelian subgroup         C1      NOp   1
 Largest concise Abelian subgroup C1      NOp   1
                         Standard orientation:                         
 ---------------------------------------------------------------------
 Center     Atomic      Atomic             Coordinates (Angstroms)
 Number     Number       Type             X           Y           Z
 ---------------------------------------------------------------------
      1          1           0       -4.394714    0.679323    0.804280
      2          6           0       -3.464716    0.268307    1.170239
      3          1           0       -3.654169   -0.672453    1.674044
      4          1           0       -3.044800    0.964905    1.889447
      5          6           0       -2.503652    0.126151    0.008728
      6          8           0       -2.547931    0.861112   -0.941076
      7          1           0        4.128104    1.153185    0.752934
      8          1           0        3.859316   -1.296200    0.786155
      9          6           0        3.201935    0.706281    0.438078
     10          6           0        3.050976   -0.667829    0.456469
     11          1           0        2.266701    2.576117   -0.016271
     12          6           0        2.152696    1.506818    0.006091
     13          6           0        1.854000   -1.239957    0.046630
     14          1           0        1.747370   -2.311503    0.059910
     15          6           0        0.962103    0.934821   -0.402360
     16          6           0        0.799641   -0.448901   -0.383845
     17          1           0        0.152295    1.556103   -0.741255
     18          1           0       -0.839283   -0.649661   -1.756929
     19          1           0       -0.383524   -2.137296   -0.963339
     20          6           0       -0.513021   -1.070979   -0.818558
     21          7           0       -1.594342   -0.870518    0.129920
     22          1           0       -1.533226   -1.346065    1.001363
 ---------------------------------------------------------------------
 Rotational constants (GHZ):      2.5972400      0.5880881      0.5423770
 Standard basis: 6-31G(d) (6D, 7F)
 There are   187 symmetry adapted cartesian basis functions of A   symmetry.
 There are   187 symmetry adapted basis functions of A   symmetry.
   187 basis functions,   352 primitive gaussians,   187 cartesian basis functions
    40 alpha electrons       40 beta electrons
       nuclear repulsion energy       573.3502910645 Hartrees.
 NAtoms=   22 NActive=   22 NUniq=   22 SFac= 1.00D+00 NAtFMM=   60 NAOKFM=F Big=F
 Integral buffers will be    131072 words long.
 Raffenetti 1 integral format.
 Two-electron integral symmetry is turned on.
 One-electron integrals computed using PRISM.
 NBasis=   187 RedAO= T EigKep=  4.35D-04  NBF=   187
 NBsUse=   187 1.00D-06 EigRej= -1.00D+00 NBFU=   187
 ExpMin= 1.61D-01 ExpMax= 5.48D+03 ExpMxC= 8.25D+02 IAcc=1 IRadAn=         1 AccDes= 0.00D+00
 Harris functional with IExCor=  205 and IRadAn=       1 diagonalized for initial guess.
 HarFok:  IExCor=  205 AccDes= 0.00D+00 IRadAn=         1 IDoV= 1 UseB2=F ITyADJ=14
 ICtDFT=  3500011 ScaDFX=  1.000000  1.000000  1.000000  1.000000
 FoFCou: FMM=F IPFlag=           0 FMFlag=      100000 FMFlg1=           0
         NFxFlg=           0 DoJE=T BraDBF=F KetDBF=T FulRan=T
         wScrn=  0.000000 ICntrl=     500 IOpCl=  0 I1Cent=   200000004 NGrid=           0
         NMat0=    1 NMatS0=      1 NMatT0=    0 NMatD0=    1 NMtDS0=    0 NMtDT0=    0
 Petite list used in FoFCou.
 Keep R1 ints in memory in canonical form, NReq=157950071.
 Requested convergence on RMS density matrix=1.00D-08 within 128 cycles.
 Requested convergence on MAX density matrix=1.00D-06.
 Requested convergence on             energy=1.00D-06.
 No special actions if energy rises.
 SCF Done:  E(RHF) =  -476.554674201     A.U. after   15 cycles
            NFock= 15  Conv=0.40D-08     -V/T= 2.0012

 **********************************************************************

            Population analysis using the SCF density.

 **********************************************************************

 Orbital symmetries:
 BldTbl:  Degeneracy threshold= 1.00D-02
       Occupied  (A) (A) (A) (A) (A) (A) (A) (A) (A) (A) (A) (A)
                 (A) (A) (A) (A) (A) (A) (A) (A) (A) (A) (A) (A)
                 (A) (A) (A) (A) (A) (A) (A) (A) (A) (A) (A) (A)
                 (A) (A) (A) (A)
       Virtual   (A) (A) (A) (A) (A) (A) (A) (A) (A) (A) (A) (A)
                 (A) (A) (A) (A) (A) (A) (A) (A) (A) (A) (A) (A)
                 (A) (A) (A) (A) (A) (A) (A) (A) (A) (A) (A) (A)
                 (A) (A) (A) (A) (A) (A) (A) (A) (A) (A) (A) (A)
                 (A) (A) (A) (A) (A) (A) (A) (A) (A) (A) (A) (A)
                 (A) (A) (A) (A) (A) (A) (A) (A) (A) (A) (A) (A)
                 (A) (A) (A) (A) (A) (A) (A) (A) (A) (A) (A) (A)
                 (A) (A) (A) (A) (A) (A) (A) (A) (A) (A) (A) (A)
                 (A) (A) (A) (A) (A) (A) (A) (A) (A) (A) (A) (A)
                 (A) (A) (A) (A) (A) (A) (A) (A) (A) (A) (A) (A)
                 (A) (A) (A) (A) (A) (A) (A) (A) (A) (A) (A) (A)
                 (A) (A) (A) (A) (A) (A) (A) (A) (A) (A) (A) (A)
                 (A) (A) (A)
 The electronic state is 1-A.
 Alpha  occ. eigenvalues --  -20.51895 -15.58379 -11.34645 -11.26489 -11.23610
 Alpha  occ. eigenvalues --  -11.23170 -11.23147 -11.23057 -11.22988 -11.22880
 Alpha  occ. eigenvalues --  -11.22513  -1.38730  -1.23471  -1.15263  -1.04633
 Alpha  occ. eigenvalues --   -1.01336  -1.00213  -0.92514  -0.82741  -0.80677
 Alpha  occ. eigenvalues --   -0.78647  -0.70562  -0.68604  -0.65285  -0.64237
 Alpha  occ. eigenvalues --   -0.62665  -0.61643  -0.58488  -0.58057  -0.57831
 Alpha  occ. eigenvalues --   -0.55935  -0.54230  -0.51886  -0.49703  -0.49016
 Alpha  occ. eigenvalues --   -0.48541  -0.41745  -0.38867  -0.33332  -0.32658
 Alpha virt. eigenvalues --    0.14088   0.14699   0.20629   0.22159   0.24468
 Alpha virt. eigenvalues --    0.26729   0.28932   0.29613   0.30734   0.31980
 Alpha virt. eigenvalues --    0.32362   0.34119   0.34679   0.35091   0.36349
 Alpha virt. eigenvalues --    0.40204   0.42186   0.44518   0.48213   0.48894
 Alpha virt. eigenvalues --    0.49849   0.53279   0.54420   0.59612   0.65131
 Alpha virt. eigenvalues --    0.72464   0.73648   0.73731   0.75627   0.76269
 Alpha virt. eigenvalues --    0.77041   0.79011   0.80515   0.81656   0.82789
 Alpha virt. eigenvalues --    0.83593   0.84219   0.84598   0.85045   0.85891
 Alpha virt. eigenvalues --    0.89033   0.90203   0.92720   0.96057   0.97038
 Alpha virt. eigenvalues --    0.99124   1.00414   1.02789   1.07499   1.09082
 Alpha virt. eigenvalues --    1.10724   1.11979   1.12334   1.12632   1.14375
 Alpha virt. eigenvalues --    1.15720   1.17273   1.18214   1.19619   1.20353
 Alpha virt. eigenvalues --    1.20878   1.21440   1.22375   1.23152   1.25856
 Alpha virt. eigenvalues --    1.31063   1.35138   1.36166   1.39456   1.42431
 Alpha virt. eigenvalues --    1.42889   1.45206   1.50309   1.51607   1.55170
 Alpha virt. eigenvalues --    1.59784   1.62607   1.67445   1.69320   1.70615
 Alpha virt. eigenvalues --    1.72841   1.75441   1.76923   1.78059   1.79672
 Alpha virt. eigenvalues --    1.82033   1.82950   1.94055   2.01865   2.05053
 Alpha virt. eigenvalues --    2.10437   2.11905   2.12628   2.14328   2.15487
 Alpha virt. eigenvalues --    2.18608   2.21024   2.25322   2.25859   2.27081
 Alpha virt. eigenvalues --    2.31787   2.33478   2.38335   2.40184   2.41863
 Alpha virt. eigenvalues --    2.43738   2.46980   2.48249   2.51644   2.53311
 Alpha virt. eigenvalues --    2.56458   2.57597   2.62362   2.64665   2.66964
 Alpha virt. eigenvalues --    2.68995   2.70344   2.75672   2.77341   2.81797
 Alpha virt. eigenvalues --    2.91728   2.92538   2.93838   3.00701   3.05791
 Alpha virt. eigenvalues --    3.06789   3.09777   3.11586   3.13181   3.15648
 Alpha virt. eigenvalues --    3.23231   3.29132   3.38592   3.44619   3.54952
 Alpha virt. eigenvalues --    3.82804   4.39794   4.48710   4.53187   4.54962
 Alpha virt. eigenvalues --    4.58520   4.64336   4.75187   4.77194   4.84726
 Alpha virt. eigenvalues --    4.93246   5.14827
          Condensed to atoms (all electrons):
               1          2          3          4          5          6
     1  H    0.466377   0.383989  -0.021639  -0.018066  -0.030732   0.002908
     2  C    0.383989   5.260594   0.374845   0.376898   0.372220  -0.071633
     3  H   -0.021639   0.374845   0.527311  -0.024197  -0.037535   0.002380
     4  H   -0.018066   0.376898  -0.024197   0.491926  -0.027095   0.000062
     5  C   -0.030732   0.372220  -0.037535  -0.027095   4.137808   0.599427
     6  O    0.002908  -0.071633   0.002380   0.000062   0.599427   8.168034
     7  H    0.000000   0.000000   0.000000   0.000000   0.000000   0.000000
     8  H    0.000000   0.000000   0.000000   0.000000   0.000000   0.000000
     9  C    0.000000   0.000000   0.000000   0.000000  -0.000001   0.000000
    10  C    0.000000   0.000000   0.000000   0.000000  -0.000002   0.000000
    11  H    0.000000   0.000000   0.000000   0.000000   0.000000  -0.000002
    12  C    0.000000   0.000002   0.000000  -0.000001   0.000054   0.000068
    13  C    0.000000  -0.000008   0.000001   0.000001  -0.000091  -0.000031
    14  H    0.000000   0.000000   0.000000   0.000000  -0.000001   0.000000
    15  C    0.000001  -0.000030  -0.000004   0.000032   0.002005  -0.001361
    16  C   -0.000002  -0.000423   0.000008   0.000083  -0.001615  -0.002269
    17  H   -0.000002   0.000155  -0.000002  -0.000031   0.001165   0.006953
    18  H    0.000003   0.000387  -0.000028  -0.000009  -0.001119   0.007319
    19  H    0.000004  -0.000017  -0.000023  -0.000003   0.002203   0.000387
    20  C   -0.000105   0.004537   0.000004  -0.000195  -0.022143   0.004173
    21  N    0.003727  -0.117437   0.005722   0.000442   0.273423  -0.103615
    22  H    0.000056  -0.000129   0.000502   0.000033  -0.018377   0.002424
               7          8          9         10         11         12
     1  H    0.000000   0.000000   0.000000   0.000000   0.000000   0.000000
     2  C    0.000000   0.000000   0.000000   0.000000   0.000000   0.000002
     3  H    0.000000   0.000000   0.000000   0.000000   0.000000   0.000000
     4  H    0.000000   0.000000   0.000000   0.000000   0.000000  -0.000001
     5  C    0.000000   0.000000  -0.000001  -0.000002   0.000000   0.000054
     6  O    0.000000   0.000000   0.000000   0.000000  -0.000002   0.000068
     7  H    0.475696  -0.001707   0.383732  -0.030989  -0.001661  -0.030950
     8  H   -0.001707   0.476626  -0.030501   0.383069  -0.000116   0.002663
     9  C    0.383732  -0.030501   4.889757   0.561973  -0.031352   0.546611
    10  C   -0.030989   0.383069   0.561973   4.884730   0.002599  -0.042477
    11  H   -0.001661  -0.000116  -0.031352   0.002599   0.472721   0.382825
    12  C   -0.030950   0.002663   0.546611  -0.042477   0.382825   4.895997
    13  C    0.002649  -0.030793  -0.046208   0.542891   0.000294  -0.037787
    14  H   -0.000119  -0.001693   0.002626  -0.030163   0.000012   0.000124
    15  C    0.002535   0.000197  -0.044128  -0.037642  -0.029351   0.546259
    16  C    0.000246   0.002227  -0.032170  -0.041804   0.002263  -0.041079
    17  H   -0.000101   0.000010   0.002405   0.000121  -0.001536  -0.027038
    18  H    0.000000   0.000002   0.000002  -0.000064  -0.000001   0.000051
    19  H    0.000000  -0.000005  -0.000022   0.000254   0.000002  -0.000028
    20  C    0.000006  -0.000110   0.000217   0.003046  -0.000119   0.002293
    21  N    0.000000   0.000002   0.000000  -0.000013   0.000005   0.000000
    22  H    0.000000   0.000000  -0.000007  -0.000002   0.000000  -0.000009
              13         14         15         16         17         18
     1  H    0.000000   0.000000   0.000001  -0.000002  -0.000002   0.000003
     2  C   -0.000008   0.000000  -0.000030  -0.000423   0.000155   0.000387
     3  H    0.000001   0.000000  -0.000004   0.000008  -0.000002  -0.000028
     4  H    0.000001   0.000000   0.000032   0.000083  -0.000031  -0.000009
     5  C   -0.000091  -0.000001   0.002005  -0.001615   0.001165  -0.001119
     6  O   -0.000031   0.000000  -0.001361  -0.002269   0.006953   0.007319
     7  H    0.002649  -0.000119   0.002535   0.000246  -0.000101   0.000000
     8  H   -0.030793  -0.001693   0.000197   0.002227   0.000010   0.000002
     9  C   -0.046208   0.002626  -0.044128  -0.032170   0.002405   0.000002
    10  C    0.542891  -0.030163  -0.037642  -0.041804   0.000121  -0.000064
    11  H    0.000294   0.000012  -0.029351   0.002263  -0.001536  -0.000001
    12  C   -0.037787   0.000124   0.546259  -0.041079  -0.027038   0.000051
    13  C    4.924805   0.380908  -0.044203   0.574878   0.002581   0.001694
    14  H    0.380908   0.485934   0.003112  -0.034334  -0.000116   0.000036
    15  C   -0.044203   0.003112   4.943435   0.553225   0.374345  -0.002747
    16  C    0.574878  -0.034334   0.553225   4.867670  -0.028981  -0.039234
    17  H    0.002581  -0.000116   0.374345  -0.028981   0.433077   0.000664
    18  H    0.001694   0.000036  -0.002747  -0.039234   0.000664   0.448172
    19  H   -0.001017   0.002837   0.003365  -0.060304  -0.000054  -0.021403
    20  C   -0.038048  -0.003128  -0.044239   0.332143  -0.000478   0.409317
    21  N   -0.001237   0.000129  -0.000034  -0.075183  -0.002123  -0.040378
    22  H    0.000962   0.000052   0.000331   0.001531  -0.000035   0.003123
              19         20         21         22
     1  H    0.000004  -0.000105   0.003727   0.000056
     2  C   -0.000017   0.004537  -0.117437  -0.000129
     3  H   -0.000023   0.000004   0.005722   0.000502
     4  H   -0.000003  -0.000195   0.000442   0.000033
     5  C    0.002203  -0.022143   0.273423  -0.018377
     6  O    0.000387   0.004173  -0.103615   0.002424
     7  H    0.000000   0.000006   0.000000   0.000000
     8  H   -0.000005  -0.000110   0.000002   0.000000
     9  C   -0.000022   0.000217   0.000000  -0.000007
    10  C    0.000254   0.003046  -0.000013  -0.000002
    11  H    0.000002  -0.000119   0.000005   0.000000
    12  C   -0.000028   0.002293   0.000000  -0.000009
    13  C   -0.001017  -0.038048  -0.001237   0.000962
    14  H    0.002837  -0.003128   0.000129   0.000052
    15  C    0.003365  -0.044239  -0.000034   0.000331
    16  C   -0.060304   0.332143  -0.075183   0.001531
    17  H   -0.000054  -0.000478  -0.002123  -0.000035
    18  H   -0.021403   0.409317  -0.040378   0.003123
    19  H    0.515505   0.419037  -0.043506  -0.001880
    20  C    0.419037   4.926878   0.191049  -0.022940
    21  N   -0.043506   0.191049   7.368853   0.321986
    22  H   -0.001880  -0.022940   0.321986   0.332502
 Mulliken charges:
               1
     1  H    0.213479
     2  C   -0.583950
     3  H    0.172656
     4  H    0.200121
     5  C    0.750405
     6  O   -0.615225
     7  H    0.200663
     8  H    0.200130
     9  C   -0.202934
    10  C   -0.195525
    11  H    0.203417
    12  C   -0.197576
    13  C   -0.232240
    14  H    0.193785
    15  C   -0.225104
    16  C    0.023124
    17  H    0.239022
    18  H    0.234215
    19  H    0.184668
    20  C   -0.161195
    21  N   -0.781812
    22  H    0.379877
 Sum of Mulliken charges =   0.00000
 Mulliken charges with hydrogens summed into heavy atoms:
               1
     2  C    0.002305
     5  C    0.750405
     6  O   -0.615225
     9  C   -0.002271
    10  C    0.004605
    12  C    0.005841
    13  C   -0.038455
    15  C    0.013918
    16  C    0.023124
    20  C    0.257689
    21  N   -0.401935
 DipInt: DoE/N= T F RetVal/Mat= T F Init=T NMatP=  1 IDeriv=0 Min/MaxMlt=  0  4
 Entering OneElI...
 OneElI was handed  2147391367 working-precision words.
 Multipole integrals L=0 to 4 MinM= 0 MaxM= 0.
 Requested accuracy = 0.1000D-12
 ShPair: Thresh= 1.00D-13 NBox=     0 BxSize= 0.00D+00 RnKept= 1.61D+01
         NSMCal=                 2211 NSMKep=                1985
 PrsmSu:  NPrtUS=   1 ThrOK=F IAlg=1 NPAlg=1 LenDen=           0.
 Prism:   IPart=     0 DynPar=F LinDyn=F Incr=          19.
 PRISM was handed  2147214806 working-precision words and  1985 shell-pairs
 IPart=  0 NShTot=        1985 NBatch=          46 AvBLen=        43.2
 PrSmSu:  NxtVal=             20.
 Electronic moments (au):
        -80.00000000          0.32588955         -0.85693530          1.12385304
      -1623.43946365       -329.96795746       -183.93961773          3.45401776
         -4.40931710          0.91379171        351.48256735        -24.42970389
        -49.01056137       -440.89215038       -638.98832622      -1086.42644650
        412.15113012        -18.01003330         67.51148405        -24.94734972
     -56902.55377873      -3346.83664393      -1333.63112380       1551.01280700
       1465.43380228       -578.26622776        -55.92461551        561.44810440
        -94.17875296      -5506.33529457      -4675.33636905       -660.63207792
        173.40057225       -264.84827441        288.29906548
 Electronic spatial extent (au):  <R**2>=           2137.3470
 DipInt: DoE/N= F T RetVal/Mat= T F Init=T NMatP=  1 IDeriv=0 Min/MaxMlt=  0  4
 Nuclear    moments (au):
         80.00000000          0.00000000          0.00000000          0.00000000
       1576.32843699        284.51749761        133.86495112          0.00000000
          0.00000959         -0.00000526       -355.54334790         22.42641501
         48.36938177        449.92751394        629.36384637       1131.19403122
       -426.67510085         11.68860526        -62.41872039         17.89725460
      51422.27430856       2265.20320524        693.85272745      -1504.10738265
      -1478.92070644        595.02251919         41.01879953       -573.73742787
         90.90929765       4369.20144190       3539.01937252        358.56943583
       -141.58072185        252.61403968       -274.46698261
 Total      moments (au):
          0.00000000          0.32588955         -0.85693530          1.12385304
        -47.11102667        -45.45045985        -50.07466661          3.45401776
         -4.40930751          0.91378645         -4.06078054         -2.00328888
         -0.64117960          9.03536356         -9.62447984         44.76758471
        -14.52397072         -6.32142803          5.09276365         -7.05009512
      -5480.27947017      -1081.63343868       -639.77839635         46.90542435
        -13.48690416         16.75629143        -14.90581597        -12.28932347
         -3.26945531      -1137.13385266      -1136.31699653       -302.06264209
         31.81985039        -12.23423473         13.83208286
 Traceless Quadrup. (au):
          0.43435771          2.09492452         -2.52928223          3.45401776
         -4.40930751          0.91378645
 Charge=              0.0000 electrons
 Dipole moment (field-independent basis, Debye):
    X=              0.8283    Y=             -2.1781    Z=              2.8565  Tot=              3.6865
 Quadrupole moment (field-independent basis, Debye-Ang):
   XX=            -63.3659   YY=            -61.1324   ZZ=            -67.3521
   XY=              4.6458   XZ=             -5.9307   YZ=              1.2291
 Traceless Quadrupole moment (field-independent basis, Debye-Ang):
   XX=              0.5842   YY=              2.8177   ZZ=             -3.4020
   XY=              4.6458   XZ=             -5.9307   YZ=              1.2291
 Octapole moment (field-independent basis, Debye-Ang**2):
  XXX=             -2.8903  YYY=             -1.4259  ZZZ=             -0.4564  XYY=              6.4310
  XXY=             -6.8503  XXZ=             31.8638  XZZ=            -10.3376  YZZ=             -4.4993
  YYZ=              3.6248  XYZ=             -5.0180
 Hexadecapole moment (field-independent basis, Debye-Ang**3):
 XXXX=          -2064.1359 YYYY=           -407.3950 ZZZZ=           -240.9712 XXXY=             17.6668
 XXXZ=             -5.0798 YYYX=              6.3112 YYYZ=             -5.6142 ZZZX=             -4.6287
 ZZZY=             -1.2314 XXYY=           -428.2991 XXZZ=           -427.9914 YYZZ=           -113.7713
 XXYZ=             11.9849 YYXZ=             -4.6080 ZZXY=              5.2098
 N-N= 5.733502910645D+02 E-N=-2.260313099349D+03  KE= 4.759888269604D+02
 Entering OneElI...
 OneElI was handed  2147408208 working-precision words.
 Calculate electrostatic properties
    NBasis =   187  MinDer = 0  MaxDer = 0
    NGrid  =    22  NMatD  =   1
 Requested accuracy = 0.1000D-12
 PrtBox:  NBox=     1 Levels=  1 BoxLen=   29.89 SMaxX=       16.11
          Shift=            8.304806            4.368108            3.320115
 Box      1 Number                   0 centers from      1 to     66:
 ShPair: Thresh= 1.00D-13 NBox=     1 BxSize= 2.99D+01 RnKept= 1.61D+01
         NSMCal=                 2211 NSMKep=                1842
 PrsmSu:  NPrtUS=   4 ThrOK=T IAlg=1 NPAlg=1 LenDen=           0.
 Prism:   IPart=     0 DynPar=F LinDyn=F Incr=         101.
 PRISM was handed   536766368 working-precision words and  1842 shell-pairs
 PRISM was handed   536766368 working-precision words and  1842 shell-pairs
 PRISM was handed   536766368 working-precision words and  1842 shell-pairs
 PRISM was handed   536766368 working-precision words and  1842 shell-pairs
 IPart=  0 NShTot=       10472 NBatch=         476 AvBLen=        22.0
 IPart=  3 NShTot=        9812 NBatch=         446 AvBLen=        22.0
 IPart=  2 NShTot=       10010 NBatch=         455 AvBLen=        22.0
 IPart=  1 NShTot=       10230 NBatch=         465 AvBLen=        22.0
 PrSmSu:  NxtVal=            405.
 --------------------------------------------------------
       Center         ----      EFG at Nuclei      ----
                      3XX-RR        3YY-RR        3ZZ-RR
 --------------------------------------------------------
     1   Atom       -0.197848      0.094912      0.102936
     2   Atom       -0.002508      0.014678     -0.012171
     3   Atom        0.141857     -0.200018      0.058162
     4   Atom        0.083133     -0.032089     -0.051044
     5   Atom       -0.075132     -0.111693      0.186825
     6   Atom        0.763793     -0.328248     -0.435545
     7   Atom       -0.201998      0.070111      0.131887
     8   Atom       -0.116332     -0.011512      0.127844
     9   Atom        0.085552      0.189227     -0.274779
    10   Atom        0.094817      0.183061     -0.277878
    11   Atom        0.150556     -0.323051      0.172495
    12   Atom        0.141688      0.137372     -0.279060
    13   Atom        0.143639      0.111278     -0.254917
    14   Atom        0.148466     -0.321961      0.173495
    15   Atom        0.113047      0.167624     -0.280671
    16   Atom        0.085909      0.194642     -0.280551
    17   Atom       -0.110317     -0.011900      0.122217
    18   Atom        0.109806      0.094766     -0.204571
    19   Atom        0.142296     -0.293008      0.150713
    20   Atom       -0.107919      0.121627     -0.013708
    21   Atom        0.013458      0.237929     -0.251387
    22   Atom        0.204965      0.079939     -0.284904
 --------------------------------------------------------
                        XY            XZ            YZ
 --------------------------------------------------------
     1   Atom        0.157316     -0.135780      0.060388
     2   Atom       -0.012417      0.050678     -0.007495
     3   Atom       -0.065585      0.043793      0.190878
     4   Atom       -0.118385     -0.116475     -0.201262
     5   Atom       -0.266706     -0.265658     -0.272186
     6   Atom       -0.859127     -0.765198      0.495069
     7   Atom       -0.173103     -0.129168     -0.057629
     8   Atom        0.211375     -0.118494      0.087558
     9   Atom       -0.015085      0.155188     -0.034537
    10   Atom        0.039274      0.157164     -0.013249
    11   Atom       -0.051506     -0.006135      0.010845
    12   Atom        0.007194      0.178722     -0.025695
    13   Atom        0.001750      0.166504     -0.018673
    14   Atom       -0.048825     -0.007655      0.007040
    15   Atom        0.025942      0.170027     -0.018883
    16   Atom       -0.025964      0.143351     -0.040962
    17   Atom        0.205260     -0.117708      0.087634
    18   Atom        0.049545     -0.113186      0.156470
    19   Atom        0.055540      0.013851     -0.060328
    20   Atom        0.004712      0.208475     -0.093322
    21   Atom        0.610446      0.382090      0.423336
    22   Atom        0.055258     -0.012525      0.283331
 --------------------------------------------------------


 ---------------------------------------------------------------------------------
              Nuclear Quadrupole Coupling Constant in Principal Axis System
 ---------------------------------------------------------------------------------

       Atom             a.u.   MegaHertz   Gauss  10(-4) cm-1        Axes

              Baa    -0.5244     2.518     0.899     0.840 -0.6563  0.1111  0.7463
    21 N(14)  Bbb    -0.4805     2.308     0.823     0.770 -0.4733  0.7097 -0.5219
              Bcc     1.0049    -4.826    -1.722    -1.610  0.5876  0.6957  0.4132
 

 ---------------------------------------------------------------------------------

 No NMR shielding tensors so no spin-rotation constants.
 Leave Link  601 at Wed Nov 29 20:36:55 2017, MaxMem=  2147483648 cpu:         0.3
 FitSet:  NAtFit=    22 NAtPot=    22 NAtFrz=     0 MDM=    26 TotChg=   0.00000
 Merz-Kollman atomic radii used.
 Atom Element Radius
    1     1    1.20
    2     6    1.50
    3     1    1.20
    4     1    1.20
    5     6    1.50
    6     8    1.40
    7     1    1.20
    8     1    1.20
    9     6    1.50
   10     6    1.50
   11     1    1.20
   12     6    1.50
   13     6    1.50
   14     1    1.20
   15     6    1.50
   16     6    1.50
   17     1    1.20
   18     1    1.20
   19     1    1.20
   20     6    1.50
   21     7    1.50
   22     1    1.20
 Generate VDW surfaces: Layer= 4 Dens= 6 Start= 1.400 Inc= 0.200

 **********************************************************************

            Electrostatic Properties Using The SCF Density

 **********************************************************************

       Atomic Center    1 is at  -4.394714  0.679323  0.804280
       Atomic Center    2 is at  -3.464716  0.268307  1.170239
       Atomic Center    3 is at  -3.654169 -0.672453  1.674044
       Atomic Center    4 is at  -3.044800  0.964905  1.889447
       Atomic Center    5 is at  -2.503652  0.126151  0.008728
       Atomic Center    6 is at  -2.547931  0.861112 -0.941076
       Atomic Center    7 is at   4.128104  1.153185  0.752934
       Atomic Center    8 is at   3.859316 -1.296200  0.786155
       Atomic Center    9 is at   3.201935  0.706281  0.438078
       Atomic Center   10 is at   3.050976 -0.667829  0.456469
       Atomic Center   11 is at   2.266701  2.576117 -0.016271
       Atomic Center   12 is at   2.152696  1.506818  0.006091
       Atomic Center   13 is at   1.854000 -1.239957  0.046630
       Atomic Center   14 is at   1.747370 -2.311503  0.059910
       Atomic Center   15 is at   0.962103  0.934821 -0.402360
       Atomic Center   16 is at   0.799641 -0.448901 -0.383845
       Atomic Center   17 is at   0.152295  1.556103 -0.741255
       Atomic Center   18 is at  -0.839283 -0.649661 -1.756929
       Atomic Center   19 is at  -0.383524 -2.137296 -0.963339
       Atomic Center   20 is at  -0.513021 -1.070979 -0.818558
       Atomic Center   21 is at  -1.594342 -0.870518  0.129920
       Atomic Center   22 is at  -1.533226 -1.346065  1.001363
      ESP Fit Center   23 is at  -5.122175  1.099323  2.259203
      ESP Fit Center   24 is at  -5.234714  0.679323  2.259203
      ESP Fit Center   25 is at  -4.719809  1.821914  1.992219
      ESP Fit Center   26 is at  -5.110607  1.627319  1.992219
      ESP Fit Center   27 is at  -5.404720  1.304692  1.992219
      ESP Fit Center   28 is at  -5.562426  0.897606  1.992219
      ESP Fit Center   29 is at  -5.562426  0.461040  1.992219
      ESP Fit Center   30 is at  -5.404720  0.053953  1.992219
      ESP Fit Center   31 is at  -4.718465  2.097768  1.644280
      ESP Fit Center   32 is at  -5.122175  1.939323  1.644280
      ESP Fit Center   33 is at  -5.461248  1.668922  1.644280
      ESP Fit Center   34 is at  -5.705554  1.310590  1.644280
      ESP Fit Center   35 is at  -5.833386  0.896168  1.644280
      ESP Fit Center   36 is at  -5.833386  0.462478  1.644280
      ESP Fit Center   37 is at  -5.705554  0.048056  1.644280
      ESP Fit Center   38 is at  -5.461248 -0.310276  1.644280
      ESP Fit Center   39 is at  -4.394714  2.302078  1.239096
      ESP Fit Center   40 is at  -4.814714  2.246784  1.239096
      ESP Fit Center   41 is at  -5.206092  2.084670  1.239096
      ESP Fit Center   42 is at  -5.542175  1.826784  1.239096
      ESP Fit Center   43 is at  -5.800061  1.490701  1.239096
      ESP Fit Center   44 is at  -5.962175  1.099323  1.239096
      ESP Fit Center   45 is at  -6.017469  0.679323  1.239096
      ESP Fit Center   46 is at  -5.962175  0.259323  1.239096
      ESP Fit Center   47 is at  -5.800061 -0.132055  1.239096
      ESP Fit Center   48 is at  -5.542175 -0.468138  1.239096
      ESP Fit Center   49 is at  -4.289226  2.356008  0.804280
      ESP Fit Center   50 is at  -4.709515  2.329566  0.804280
      ESP Fit Center   51 is at  -5.110023  2.199432  0.804280
      ESP Fit Center   52 is at  -5.465586  1.973785  0.804280
      ESP Fit Center   53 is at  -5.753863  1.666802  0.804280
      ESP Fit Center   54 is at  -5.956739  1.297772  0.804280
      ESP Fit Center   55 is at  -6.061467  0.889883  0.804280
      ESP Fit Center   56 is at  -6.061467  0.468763  0.804280
      ESP Fit Center   57 is at  -5.956739  0.060874  0.804280
      ESP Fit Center   58 is at  -5.753863 -0.308156  0.804280
      ESP Fit Center   59 is at  -5.465586 -0.615139  0.804280
      ESP Fit Center   60 is at  -3.974714  2.246784  0.369464
      ESP Fit Center   61 is at  -4.394714  2.302078  0.369464
      ESP Fit Center   62 is at  -4.814714  2.246784  0.369464
      ESP Fit Center   63 is at  -5.206092  2.084670  0.369464
      ESP Fit Center   64 is at  -5.542175  1.826784  0.369464
      ESP Fit Center   65 is at  -5.800061  1.490701  0.369464
      ESP Fit Center   66 is at  -5.962175  1.099323  0.369464
      ESP Fit Center   67 is at  -6.017469  0.679323  0.369464
      ESP Fit Center   68 is at  -5.962175  0.259323  0.369464
      ESP Fit Center   69 is at  -5.800061 -0.132055  0.369464
      ESP Fit Center   70 is at  -5.542175 -0.468138  0.369464
      ESP Fit Center   71 is at  -5.206092 -0.726024  0.369464
      ESP Fit Center   72 is at  -3.863171  2.033672 -0.035720
      ESP Fit Center   73 is at  -4.285988  2.130177 -0.035720
      ESP Fit Center   74 is at  -4.718465  2.097768 -0.035720
      ESP Fit Center   75 is at  -5.122175  1.939323 -0.035720
      ESP Fit Center   76 is at  -5.461248  1.668922 -0.035720
      ESP Fit Center   77 is at  -5.705554  1.310590 -0.035720
      ESP Fit Center   78 is at  -5.833386  0.896168 -0.035720
      ESP Fit Center   79 is at  -5.833386  0.462478 -0.035720
      ESP Fit Center   80 is at  -5.705554  0.048056 -0.035720
      ESP Fit Center   81 is at  -5.461248 -0.310276 -0.035720
      ESP Fit Center   82 is at  -5.122175 -0.580677 -0.035720
      ESP Fit Center   83 is at  -4.285105  1.862195 -0.383659
      ESP Fit Center   84 is at  -4.719809  1.821914 -0.383659
      ESP Fit Center   85 is at  -5.110607  1.627319 -0.383659
      ESP Fit Center   86 is at  -5.404720  1.304692 -0.383659
      ESP Fit Center   87 is at  -5.562426  0.897606 -0.383659
      ESP Fit Center   88 is at  -5.562426  0.461040 -0.383659
      ESP Fit Center   89 is at  -5.404720  0.053953 -0.383659
      ESP Fit Center   90 is at  -5.110607 -0.268673 -0.383659
      ESP Fit Center   91 is at  -4.719809 -0.463268 -0.383659
      ESP Fit Center   92 is at  -4.394714  1.519323 -0.650643
      ESP Fit Center   93 is at  -4.814714  1.406784 -0.650643
      ESP Fit Center   94 is at  -5.122175  1.099323 -0.650643
      ESP Fit Center   95 is at  -5.234714  0.679323 -0.650643
      ESP Fit Center   96 is at  -5.122175  0.259323 -0.650643
      ESP Fit Center   97 is at  -4.814714 -0.048138 -0.650643
      ESP Fit Center   98 is at  -4.612122  1.055885 -0.818475
      ESP Fit Center   99 is at  -4.829530  0.679323 -0.818475
      ESP Fit Center  100 is at  -4.612122  0.302761 -0.818475
      ESP Fit Center  101 is at  -3.874406  0.268307  3.229888
      ESP Fit Center  102 is at  -3.259871 -0.086495  3.229888
      ESP Fit Center  103 is at  -4.160685  0.670125  3.110386
      ESP Fit Center  104 is at  -4.268351  0.268307  3.110386
      ESP Fit Center  105 is at  -4.456662  0.882494  2.916325
      ESP Fit Center  106 is at  -4.611548  0.482687  2.916325
      ESP Fit Center  107 is at  -4.611548  0.053927  2.916325
      ESP Fit Center  108 is at  -4.713914  1.071118  2.655163
      ESP Fit Center  109 is at  -4.889490  0.686658  2.655163
      ESP Fit Center  110 is at  -4.949640  0.268307  2.655163
      ESP Fit Center  111 is at  -2.215518 -0.534504  2.655163
      ESP Fit Center  112 is at  -2.039942 -0.150045  2.655163
      ESP Fit Center  113 is at  -4.771680  1.426176  2.336936
      ESP Fit Center  114 is at  -5.010799  1.079754  2.336936
      ESP Fit Center  115 is at  -5.160064  0.686173  2.336936
      ESP Fit Center  116 is at  -5.210802  0.268307  2.336936
      ESP Fit Center  117 is at  -5.160064 -0.149559  2.336936
      ESP Fit Center  118 is at  -1.769368 -0.149559  2.336936
      ESP Fit Center  119 is at  -5.303302 -0.351185  1.973874
      ESP Fit Center  120 is at  -3.874406  2.327956  1.170239
      ESP Fit Center  121 is at  -2.749389  2.199747  0.760549
      ESP Fit Center  122 is at  -3.152828  2.304205  0.760549
      ESP Fit Center  123 is at  -3.569036  2.325313  0.760549
      ESP Fit Center  124 is at  -5.027491 -1.073292  0.760549
      ESP Fit Center  125 is at  -3.359679  2.205609  0.366604
      ESP Fit Center  126 is at  -3.778597  2.182896  0.366604
      ESP Fit Center  127 is at  -4.873254 -1.065931  0.366604
      ESP Fit Center  128 is at  -4.553501 -1.337531  0.366604
      ESP Fit Center  129 is at  -4.771680 -0.889562  0.003541
      ESP Fit Center  130 is at  -4.456606 -1.168694  0.003541
      ESP Fit Center  131 is at  -4.083887 -1.364312  0.003541
      ESP Fit Center  132 is at  -4.713914 -0.534504 -0.314685
      ESP Fit Center  133 is at  -4.437135 -0.853924 -0.314685
      ESP Fit Center  134 is at  -3.654169 -0.672453  3.354044
      ESP Fit Center  135 is at  -3.219353 -0.672453  3.296799
      ESP Fit Center  136 is at  -3.436761 -0.295891  3.296799
      ESP Fit Center  137 is at  -3.871577 -0.295891  3.296799
      ESP Fit Center  138 is at  -4.088985 -0.672453  3.296799
      ESP Fit Center  139 is at  -3.871577 -1.049015  3.296799
      ESP Fit Center  140 is at  -3.436761 -1.049015  3.296799
      ESP Fit Center  141 is at  -2.814169 -0.672453  3.128967
      ESP Fit Center  142 is at  -4.381630 -0.252453  3.128967
      ESP Fit Center  143 is at  -4.494169 -0.672453  3.128967
      ESP Fit Center  144 is at  -4.381630 -1.092453  3.128967
      ESP Fit Center  145 is at  -4.074169 -1.399914  3.128967
      ESP Fit Center  146 is at  -3.654169 -1.512453  3.128967
      ESP Fit Center  147 is at  -3.234169 -1.399914  3.128967
      ESP Fit Center  148 is at  -2.926708 -1.092453  3.128967
      ESP Fit Center  149 is at  -2.466230 -0.672453  2.861983
      ESP Fit Center  150 is at  -4.821881 -0.454170  2.861983
      ESP Fit Center  151 is at  -4.821881 -0.890736  2.861983
      ESP Fit Center  152 is at  -4.664175 -1.297823  2.861983
      ESP Fit Center  153 is at  -4.370062 -1.620449  2.861983
      ESP Fit Center  154 is at  -3.979264 -1.815044  2.861983
      ESP Fit Center  155 is at  -3.544560 -1.855325  2.861983
      ESP Fit Center  156 is at  -3.124659 -1.735853  2.861983
      ESP Fit Center  157 is at  -2.776271 -1.472763  2.861983
      ESP Fit Center  158 is at  -2.546448 -1.101586  2.861983
      ESP Fit Center  159 is at  -5.092841 -0.455608  2.514044
      ESP Fit Center  160 is at  -5.092841 -0.889298  2.514044
      ESP Fit Center  161 is at  -4.965009 -1.303720  2.514044
      ESP Fit Center  162 is at  -4.720703 -1.662052  2.514044
      ESP Fit Center  163 is at  -4.381630 -1.932453  2.514044
      ESP Fit Center  164 is at  -3.977920 -2.090898  2.514044
      ESP Fit Center  165 is at  -3.545442 -2.123307  2.514044
      ESP Fit Center  166 is at  -3.122626 -2.026802  2.514044
      ESP Fit Center  167 is at  -2.747040 -1.809957  2.514044
      ESP Fit Center  168 is at  -2.452055 -1.492040  2.514044
      ESP Fit Center  169 is at  -2.263884 -1.101299  2.514044
      ESP Fit Center  170 is at  -5.276924 -0.672453  2.108860
      ESP Fit Center  171 is at  -5.221630 -1.092453  2.108860
      ESP Fit Center  172 is at  -5.059516 -1.483831  2.108860
      ESP Fit Center  173 is at  -4.801630 -1.819914  2.108860
      ESP Fit Center  174 is at  -4.465547 -2.077800  2.108860
      ESP Fit Center  175 is at  -4.074169 -2.239914  2.108860
      ESP Fit Center  176 is at  -3.654169 -2.295208  2.108860
      ESP Fit Center  177 is at  -3.234169 -2.239914  2.108860
      ESP Fit Center  178 is at  -2.842791 -2.077800  2.108860
      ESP Fit Center  179 is at  -5.320922 -0.883013  1.674044
      ESP Fit Center  180 is at  -5.216193 -1.290902  1.674044
      ESP Fit Center  181 is at  -5.013318 -1.659932  1.674044
      ESP Fit Center  182 is at  -4.725041 -1.966915  1.674044
      ESP Fit Center  183 is at  -4.369478 -2.192562  1.674044
      ESP Fit Center  184 is at  -3.968970 -2.322696  1.674044
      ESP Fit Center  185 is at  -3.548681 -2.349138  1.674044
      ESP Fit Center  186 is at  -3.135020 -2.270228  1.674044
      ESP Fit Center  187 is at  -5.221630 -1.092453  1.239228
      ESP Fit Center  188 is at  -5.059516 -1.483831  1.239228
      ESP Fit Center  189 is at  -4.801630 -1.819914  1.239228
      ESP Fit Center  190 is at  -4.465547 -2.077800  1.239228
      ESP Fit Center  191 is at  -4.074169 -2.239914  1.239228
      ESP Fit Center  192 is at  -3.654169 -2.295208  1.239228
      ESP Fit Center  193 is at  -3.234169 -2.239914  1.239228
      ESP Fit Center  194 is at  -4.965009 -1.303720  0.834044
      ESP Fit Center  195 is at  -4.720703 -1.662052  0.834044
      ESP Fit Center  196 is at  -4.381630 -1.932453  0.834044
      ESP Fit Center  197 is at  -3.977920 -2.090898  0.834044
      ESP Fit Center  198 is at  -3.545442 -2.123307  0.834044
      ESP Fit Center  199 is at  -4.370062 -1.620449  0.486105
      ESP Fit Center  200 is at  -3.979264 -1.815044  0.486105
      ESP Fit Center  201 is at  -3.544560 -1.855325  0.486105
      ESP Fit Center  202 is at  -3.044800  0.964905  3.569447
      ESP Fit Center  203 is at  -2.609984  0.964905  3.512202
      ESP Fit Center  204 is at  -2.827392  1.341467  3.512202
      ESP Fit Center  205 is at  -3.262208  1.341467  3.512202
      ESP Fit Center  206 is at  -3.479616  0.964905  3.512202
      ESP Fit Center  207 is at  -3.262208  0.588343  3.512202
      ESP Fit Center  208 is at  -2.827392  0.588343  3.512202
      ESP Fit Center  209 is at  -2.204800  0.964905  3.344370
      ESP Fit Center  210 is at  -2.317339  1.384905  3.344370
      ESP Fit Center  211 is at  -2.624800  1.692366  3.344370
      ESP Fit Center  212 is at  -3.044800  1.804905  3.344370
      ESP Fit Center  213 is at  -3.464800  1.692366  3.344370
      ESP Fit Center  214 is at  -3.772261  1.384905  3.344370
      ESP Fit Center  215 is at  -3.884800  0.964905  3.344370
      ESP Fit Center  216 is at  -3.772261  0.544905  3.344370
      ESP Fit Center  217 is at  -3.464800  0.237444  3.344370
      ESP Fit Center  218 is at  -3.044800  0.124905  3.344370
      ESP Fit Center  219 is at  -2.624800  0.237444  3.344370
      ESP Fit Center  220 is at  -2.317339  0.544905  3.344370
      ESP Fit Center  221 is at  -1.856861  0.964905  3.077386
      ESP Fit Center  222 is at  -1.937080  1.394038  3.077386
      ESP Fit Center  223 is at  -2.166902  1.765215  3.077386
      ESP Fit Center  224 is at  -2.515290  2.028305  3.077386
      ESP Fit Center  225 is at  -2.935191  2.147777  3.077386
      ESP Fit Center  226 is at  -3.369895  2.107496  3.077386
      ESP Fit Center  227 is at  -3.760693  1.912901  3.077386
      ESP Fit Center  228 is at  -4.054806  1.590275  3.077386
      ESP Fit Center  229 is at  -4.212512  1.183188  3.077386
      ESP Fit Center  230 is at  -4.212512  0.746622  3.077386
      ESP Fit Center  231 is at  -2.515290 -0.098495  3.077386
      ESP Fit Center  232 is at  -2.166902  0.164595  3.077386
      ESP Fit Center  233 is at  -1.937080  0.535772  3.077386
      ESP Fit Center  234 is at  -1.589877  0.964905  2.729447
      ESP Fit Center  235 is at  -1.654515  1.393751  2.729447
      ESP Fit Center  236 is at  -1.842686  1.784492  2.729447
      ESP Fit Center  237 is at  -2.137671  2.102409  2.729447
      ESP Fit Center  238 is at  -2.513257  2.319254  2.729447
      ESP Fit Center  239 is at  -2.936074  2.415759  2.729447
      ESP Fit Center  240 is at  -3.368551  2.383350  2.729447
      ESP Fit Center  241 is at  -3.772261  2.224905  2.729447
      ESP Fit Center  242 is at  -4.111334  1.954504  2.729447
      ESP Fit Center  243 is at  -4.355640  1.596172  2.729447
      ESP Fit Center  244 is at  -1.842686  0.145318  2.729447
      ESP Fit Center  245 is at  -1.654515  0.536059  2.729447
      ESP Fit Center  246 is at  -1.422045  0.964905  2.324263
      ESP Fit Center  247 is at  -1.477339  1.384905  2.324263
      ESP Fit Center  248 is at  -1.639453  1.776283  2.324263
      ESP Fit Center  249 is at  -1.897339  2.112366  2.324263
      ESP Fit Center  250 is at  -2.233422  2.370252  2.324263
      ESP Fit Center  251 is at  -2.624800  2.532366  2.324263
      ESP Fit Center  252 is at  -3.044800  2.587660  2.324263
      ESP Fit Center  253 is at  -3.464800  2.532366  2.324263
      ESP Fit Center  254 is at  -3.856178  2.370252  2.324263
      ESP Fit Center  255 is at  -4.192261  2.112366  2.324263
      ESP Fit Center  256 is at  -4.450147  1.776283  2.324263
      ESP Fit Center  257 is at  -1.639453  0.153527  2.324263
      ESP Fit Center  258 is at  -1.477339  0.544905  2.324263
      ESP Fit Center  259 is at  -1.364800  0.964905  1.889447
      ESP Fit Center  260 is at  -1.417580  1.382704  1.889447
      ESP Fit Center  261 is at  -1.572605  1.774251  1.889447
      ESP Fit Center  262 is at  -1.820133  2.114944  1.889447
      ESP Fit Center  263 is at  -2.144611  2.383376  1.889447
      ESP Fit Center  264 is at  -2.525651  2.562680  1.889447
      ESP Fit Center  265 is at  -2.939312  2.641590  1.889447
      ESP Fit Center  266 is at  -3.359601  2.615148  1.889447
      ESP Fit Center  267 is at  -3.760109  2.485014  1.889447
      ESP Fit Center  268 is at  -4.115672  2.259367  1.889447
      ESP Fit Center  269 is at  -1.417580  0.547106  1.889447
      ESP Fit Center  270 is at  -1.477339  1.384905  1.454631
      ESP Fit Center  271 is at  -1.639453  1.776283  1.454631
      ESP Fit Center  272 is at  -1.897339  2.112366  1.454631
      ESP Fit Center  273 is at  -2.233422  2.370252  1.454631
      ESP Fit Center  274 is at  -2.624800  2.532366  1.454631
      ESP Fit Center  275 is at  -3.044800  2.587660  1.454631
      ESP Fit Center  276 is at  -3.464800  2.532366  1.454631
      ESP Fit Center  277 is at  -3.856178  2.370252  1.454631
      ESP Fit Center  278 is at  -2.137671  2.102409  1.049447
      ESP Fit Center  279 is at  -2.513257  2.319254  1.049447
      ESP Fit Center  280 is at  -2.936074  2.415759  1.049447
      ESP Fit Center  281 is at  -3.368551  2.383350  1.049447
      ESP Fit Center  282 is at  -1.415739  0.547611  1.754814
      ESP Fit Center  283 is at  -1.254454  0.928962  1.493652
      ESP Fit Center  284 is at  -0.957569  0.937598  1.175425
      ESP Fit Center  285 is at  -1.196688  1.284020  1.175425
      ESP Fit Center  286 is at  -1.511762  1.563152  1.175425
      ESP Fit Center  287 is at  -0.959114  1.300278  0.812363
      ESP Fit Center  288 is at  -1.247627  1.604857  0.812363
      ESP Fit Center  289 is at  -1.594871  1.840294  0.812363
      ESP Fit Center  290 is at  -1.984608  1.995580  0.812363
      ESP Fit Center  291 is at  -1.084622  1.618970  0.418418
      ESP Fit Center  292 is at  -1.414172  1.874060  0.418418
      ESP Fit Center  293 is at  -1.788325  2.057591  0.418418
      ESP Fit Center  294 is at  -3.670349 -1.619935  0.008728
      ESP Fit Center  295 is at  -4.304499 -0.873401 -0.400962
      ESP Fit Center  296 is at  -4.066427 -1.215448 -0.400962
      ESP Fit Center  297 is at  -3.764376 -1.502570 -0.400962
      ESP Fit Center  298 is at  -4.432426 -0.083616 -0.794907
      ESP Fit Center  299 is at  -4.342238 -0.493341 -0.794907
      ESP Fit Center  300 is at  -4.166081 -0.874099 -0.794907
      ESP Fit Center  301 is at  -3.912190 -1.208087 -0.794907
      ESP Fit Center  302 is at  -3.592437 -1.479687 -0.794907
      ESP Fit Center  303 is at  -4.199000 -0.291715 -1.157970
      ESP Fit Center  304 is at  -4.049735 -0.685296 -1.157970
      ESP Fit Center  305 is at  -3.810616 -1.031718 -1.157970
      ESP Fit Center  306 is at  -3.495542 -1.310850 -1.157970
      ESP Fit Center  307 is at  -3.752850 -0.676660 -1.476196
      ESP Fit Center  308 is at  -3.476071 -0.996080 -1.476196
      ESP Fit Center  309 is at  -3.120512 -1.224584 -1.476196
      ESP Fit Center  310 is at  -3.206744 -0.804894 -1.737358
      ESP Fit Center  311 is at  -2.822934 -0.996009 -1.737358
      ESP Fit Center  312 is at  -1.942853  2.186049  0.370420
      ESP Fit Center  313 is at  -2.340640  2.302850  0.370420
      ESP Fit Center  314 is at  -2.755222  2.302850  0.370420
      ESP Fit Center  315 is at  -3.153010  2.186049  0.370420
      ESP Fit Center  316 is at  -1.310573  2.023069  0.038924
      ESP Fit Center  317 is at  -1.638413  2.294282  0.038924
      ESP Fit Center  318 is at  -2.023403  2.475445  0.038924
      ESP Fit Center  319 is at  -2.441350  2.555172  0.038924
      ESP Fit Center  320 is at  -2.865994  2.528456  0.038924
      ESP Fit Center  321 is at  -3.270653  2.396974  0.038924
      ESP Fit Center  322 is at  -3.629901  2.168989  0.038924
      ESP Fit Center  323 is at  -1.385702  2.318501 -0.335403
      ESP Fit Center  324 is at  -1.739141  2.540582 -0.335403
      ESP Fit Center  325 is at  -2.133136  2.678447 -0.335403
      ESP Fit Center  326 is at  -2.547931  2.725183 -0.335403
      ESP Fit Center  327 is at  -2.962726  2.678447 -0.335403
      ESP Fit Center  328 is at  -3.356721  2.540582 -0.335403
      ESP Fit Center  329 is at  -3.710160  2.318501 -0.335403
      ESP Fit Center  330 is at  -4.005320  2.023341 -0.335403
      ESP Fit Center  331 is at  -1.634880  2.583309 -0.736200
      ESP Fit Center  332 is at  -2.026448  2.739324 -0.736200
      ESP Fit Center  333 is at  -2.442400  2.807516 -0.736200
      ESP Fit Center  334 is at  -2.863287  2.784696 -0.736200
      ESP Fit Center  335 is at  -3.269428  2.671932 -0.736200
      ESP Fit Center  336 is at  -3.641832  2.474495 -0.736200
      ESP Fit Center  337 is at  -3.963087  2.201619 -0.736200
      ESP Fit Center  338 is at  -4.218171  1.866062 -0.736200
      ESP Fit Center  339 is at  -4.395156  1.483515 -0.736200
      ESP Fit Center  340 is at  -1.286005  2.346766 -1.145952
      ESP Fit Center  341 is at  -1.634880  2.583309 -1.145952
      ESP Fit Center  342 is at  -2.026448  2.739324 -1.145952
      ESP Fit Center  343 is at  -2.442400  2.807516 -1.145952
      ESP Fit Center  344 is at  -2.863287  2.784696 -1.145952
      ESP Fit Center  345 is at  -3.269428  2.671932 -1.145952
      ESP Fit Center  346 is at  -3.641832  2.474495 -1.145952
      ESP Fit Center  347 is at  -3.963087  2.201619 -1.145952
      ESP Fit Center  348 is at  -4.218171  1.866062 -1.145952
      ESP Fit Center  349 is at  -4.395156  1.483515 -1.145952
      ESP Fit Center  350 is at  -4.485767  1.071864 -1.145952
      ESP Fit Center  351 is at  -4.485767  0.650360 -1.145952
      ESP Fit Center  352 is at  -4.395156  0.238709 -1.145952
      ESP Fit Center  353 is at  -1.385702  2.318501 -1.546749
      ESP Fit Center  354 is at  -1.739141  2.540582 -1.546749
      ESP Fit Center  355 is at  -2.133136  2.678447 -1.546749
      ESP Fit Center  356 is at  -2.547931  2.725183 -1.546749
      ESP Fit Center  357 is at  -2.962726  2.678447 -1.546749
      ESP Fit Center  358 is at  -3.356721  2.540582 -1.546749
      ESP Fit Center  359 is at  -3.710160  2.318501 -1.546749
      ESP Fit Center  360 is at  -4.005320  2.023341 -1.546749
      ESP Fit Center  361 is at  -4.227401  1.669902 -1.546749
      ESP Fit Center  362 is at  -4.365266  1.275907 -1.546749
      ESP Fit Center  363 is at  -4.412002  0.861112 -1.546749
      ESP Fit Center  364 is at  -4.365266  0.446317 -1.546749
      ESP Fit Center  365 is at  -4.227401  0.052322 -1.546749
      ESP Fit Center  366 is at  -4.005320 -0.301117 -1.546749
      ESP Fit Center  367 is at  -1.060479  1.678845 -1.921076
      ESP Fit Center  368 is at  -1.310573  2.023069 -1.921076
      ESP Fit Center  369 is at  -1.638413  2.294282 -1.921076
      ESP Fit Center  370 is at  -2.023403  2.475445 -1.921076
      ESP Fit Center  371 is at  -2.441350  2.555172 -1.921076
      ESP Fit Center  372 is at  -2.865994  2.528456 -1.921076
      ESP Fit Center  373 is at  -3.270653  2.396974 -1.921076
      ESP Fit Center  374 is at  -3.629901  2.168989 -1.921076
      ESP Fit Center  375 is at  -3.921164  1.858824 -1.921076
      ESP Fit Center  376 is at  -4.126143  1.485970 -1.921076
      ESP Fit Center  377 is at  -4.231956  1.073854 -1.921076
      ESP Fit Center  378 is at  -4.231956  0.648370 -1.921076
      ESP Fit Center  379 is at  -4.126143  0.236254 -1.921076
      ESP Fit Center  380 is at  -3.921164 -0.136600 -1.921076
      ESP Fit Center  381 is at  -3.629901 -0.446765 -1.921076
      ESP Fit Center  382 is at  -3.270653 -0.674750 -1.921076
      ESP Fit Center  383 is at  -2.865994 -0.806232 -1.921076
      ESP Fit Center  384 is at  -1.150368  1.271473 -2.252572
      ESP Fit Center  385 is at  -1.322592  1.648590 -2.252572
      ESP Fit Center  386 is at  -1.594085  1.961910 -2.252572
      ESP Fit Center  387 is at  -1.942853  2.186049 -2.252572
      ESP Fit Center  388 is at  -2.340640  2.302850 -2.252572
      ESP Fit Center  389 is at  -2.755222  2.302850 -2.252572
      ESP Fit Center  390 is at  -3.153010  2.186049 -2.252572
      ESP Fit Center  391 is at  -3.501777  1.961910 -2.252572
      ESP Fit Center  392 is at  -3.773271  1.648590 -2.252572
      ESP Fit Center  393 is at  -3.945494  1.271473 -2.252572
      ESP Fit Center  394 is at  -4.004495  0.861112 -2.252572
      ESP Fit Center  395 is at  -3.945494  0.450751 -2.252572
      ESP Fit Center  396 is at  -3.773271  0.073634 -2.252572
      ESP Fit Center  397 is at  -3.501777 -0.239686 -2.252572
      ESP Fit Center  398 is at  -3.153010 -0.463825 -2.252572
      ESP Fit Center  399 is at  -2.755222 -0.580626 -2.252572
      ESP Fit Center  400 is at  -1.395872  0.861112 -2.526749
      ESP Fit Center  401 is at  -1.473668  1.277284 -2.526749
      ESP Fit Center  402 is at  -1.696549  1.637249 -2.526749
      ESP Fit Center  403 is at  -2.034414  1.892393 -2.526749
      ESP Fit Center  404 is at  -2.441632  2.008257 -2.526749
      ESP Fit Center  405 is at  -2.863207  1.969192 -2.526749
      ESP Fit Center  406 is at  -3.242202  1.780475 -2.526749
      ESP Fit Center  407 is at  -3.527431  1.467593 -2.526749
      ESP Fit Center  408 is at  -3.680374  1.072802 -2.526749
      ESP Fit Center  409 is at  -3.680374  0.649422 -2.526749
      ESP Fit Center  410 is at  -3.527431  0.254631 -2.526749
      ESP Fit Center  411 is at  -3.242202 -0.058251 -2.526749
      ESP Fit Center  412 is at  -2.863207 -0.246968 -2.526749
      ESP Fit Center  413 is at  -2.441632 -0.286033 -2.526749
      ESP Fit Center  414 is at  -1.750727  0.861112 -2.731625
      ESP Fit Center  415 is at  -1.857532  1.259714 -2.731625
      ESP Fit Center  416 is at  -2.149329  1.551511 -2.731625
      ESP Fit Center  417 is at  -2.547931  1.658316 -2.731625
      ESP Fit Center  418 is at  -2.946533  1.551511 -2.731625
      ESP Fit Center  419 is at  -3.238330  1.259714 -2.731625
      ESP Fit Center  420 is at  -3.345135  0.861112 -2.731625
      ESP Fit Center  421 is at  -3.238330  0.462510 -2.731625
      ESP Fit Center  422 is at  -2.946533  0.170713 -2.731625
      ESP Fit Center  423 is at  -2.547931  0.063908 -2.731625
      ESP Fit Center  424 is at  -2.149329  0.170713 -2.731625
      ESP Fit Center  425 is at  -1.857532  0.462510 -2.731625
      ESP Fit Center  426 is at  -2.140424  0.861112 -2.858245
      ESP Fit Center  427 is at  -2.344178  1.214023 -2.858245
      ESP Fit Center  428 is at  -2.751684  1.214023 -2.858245
      ESP Fit Center  429 is at  -2.955438  0.861112 -2.858245
      ESP Fit Center  430 is at  -2.751684  0.508201 -2.858245
      ESP Fit Center  431 is at  -2.344178  0.508201 -2.858245
      ESP Fit Center  432 is at  -2.547931  0.861112 -2.901076
      ESP Fit Center  433 is at   4.128104  1.153185  2.432934
      ESP Fit Center  434 is at   4.562920  1.153185  2.375689
      ESP Fit Center  435 is at   4.345512  1.529747  2.375689
      ESP Fit Center  436 is at   3.910696  1.529747  2.375689
      ESP Fit Center  437 is at   4.345512  0.776623  2.375689
      ESP Fit Center  438 is at   4.968104  1.153185  2.207857
      ESP Fit Center  439 is at   4.855565  1.573185  2.207857
      ESP Fit Center  440 is at   4.548104  1.880646  2.207857
      ESP Fit Center  441 is at   4.128104  1.993185  2.207857
      ESP Fit Center  442 is at   3.708104  1.880646  2.207857
      ESP Fit Center  443 is at   4.548104  0.425724  2.207857
      ESP Fit Center  444 is at   4.855565  0.733185  2.207857
      ESP Fit Center  445 is at   5.316043  1.153185  1.940873
      ESP Fit Center  446 is at   5.235824  1.582318  1.940873
      ESP Fit Center  447 is at   5.006002  1.953495  1.940873
      ESP Fit Center  448 is at   4.657614  2.216585  1.940873
      ESP Fit Center  449 is at   4.237713  2.336057  1.940873
      ESP Fit Center  450 is at   3.803009  2.295776  1.940873
      ESP Fit Center  451 is at   4.657614  0.089785  1.940873
      ESP Fit Center  452 is at   5.006002  0.352875  1.940873
      ESP Fit Center  453 is at   5.235824  0.724052  1.940873
      ESP Fit Center  454 is at   5.583027  1.153185  1.592934
      ESP Fit Center  455 is at   5.518389  1.582031  1.592934
      ESP Fit Center  456 is at   5.330218  1.972772  1.592934
      ESP Fit Center  457 is at   5.035233  2.290689  1.592934
      ESP Fit Center  458 is at   4.659647  2.507534  1.592934
      ESP Fit Center  459 is at   4.236830  2.604040  1.592934
      ESP Fit Center  460 is at   3.804353  2.571630  1.592934
      ESP Fit Center  461 is at   5.035233  0.015681  1.592934
      ESP Fit Center  462 is at   5.330218  0.333598  1.592934
      ESP Fit Center  463 is at   5.518389  0.724339  1.592934
      ESP Fit Center  464 is at   5.750859  1.153185  1.187750
      ESP Fit Center  465 is at   5.695565  1.573185  1.187750
      ESP Fit Center  466 is at   5.533451  1.964563  1.187750
      ESP Fit Center  467 is at   5.275565  2.300646  1.187750
      ESP Fit Center  468 is at   4.939482  2.558532  1.187750
      ESP Fit Center  469 is at   4.548104  2.720646  1.187750
      ESP Fit Center  470 is at   4.128104  2.775940  1.187750
      ESP Fit Center  471 is at   3.708104  2.720646  1.187750
      ESP Fit Center  472 is at   5.275565  0.005724  1.187750
      ESP Fit Center  473 is at   5.533451  0.341807  1.187750
      ESP Fit Center  474 is at   5.695565  0.733185  1.187750
      ESP Fit Center  475 is at   5.808104  1.153185  0.752934
      ESP Fit Center  476 is at   5.755324  1.570984  0.752934
      ESP Fit Center  477 is at   5.600299  1.962531  0.752934
      ESP Fit Center  478 is at   5.352771  2.303224  0.752934
      ESP Fit Center  479 is at   5.028293  2.571656  0.752934
      ESP Fit Center  480 is at   4.647253  2.750960  0.752934
      ESP Fit Center  481 is at   4.233592  2.829870  0.752934
      ESP Fit Center  482 is at   3.813303  2.803428  0.752934
      ESP Fit Center  483 is at   5.352771  0.003146  0.752934
      ESP Fit Center  484 is at   5.600299  0.343839  0.752934
      ESP Fit Center  485 is at   5.755324  0.735386  0.752934
      ESP Fit Center  486 is at   5.750859  1.153185  0.318118
      ESP Fit Center  487 is at   5.695565  1.573185  0.318118
      ESP Fit Center  488 is at   5.533451  1.964563  0.318118
      ESP Fit Center  489 is at   5.275565  2.300646  0.318118
      ESP Fit Center  490 is at   4.939482  2.558532  0.318118
      ESP Fit Center  491 is at   4.548104  2.720646  0.318118
      ESP Fit Center  492 is at   4.128104  2.775940  0.318118
      ESP Fit Center  493 is at   5.275565  0.005724  0.318118
      ESP Fit Center  494 is at   5.533451  0.341807  0.318118
      ESP Fit Center  495 is at   5.695565  0.733185  0.318118
      ESP Fit Center  496 is at   5.583027  1.153185 -0.087066
      ESP Fit Center  497 is at   5.518389  1.582031 -0.087066
      ESP Fit Center  498 is at   5.330218  1.972772 -0.087066
      ESP Fit Center  499 is at   5.035233  2.290689 -0.087066
      ESP Fit Center  500 is at   4.659647  2.507534 -0.087066
      ESP Fit Center  501 is at   4.236830  2.604040 -0.087066
      ESP Fit Center  502 is at   5.330218  0.333598 -0.087066
      ESP Fit Center  503 is at   5.518389  0.724339 -0.087066
      ESP Fit Center  504 is at   5.316043  1.153185 -0.435005
      ESP Fit Center  505 is at   5.235824  1.582318 -0.435005
      ESP Fit Center  506 is at   5.006002  1.953495 -0.435005
      ESP Fit Center  507 is at   4.657614  2.216585 -0.435005
      ESP Fit Center  508 is at   4.237713  2.336057 -0.435005
      ESP Fit Center  509 is at   5.235824  0.724052 -0.435005
      ESP Fit Center  510 is at   4.968104  1.153185 -0.701989
      ESP Fit Center  511 is at   4.855565  1.573185 -0.701989
      ESP Fit Center  512 is at   4.548104  1.880646 -0.701989
      ESP Fit Center  513 is at   3.859316 -1.296200  2.466155
      ESP Fit Center  514 is at   4.294132 -1.296200  2.408910
      ESP Fit Center  515 is at   4.076724 -0.919638  2.408910
      ESP Fit Center  516 is at   3.641908 -1.672762  2.408910
      ESP Fit Center  517 is at   4.076724 -1.672762  2.408910
[...]
   D34       -0.01514   0.00000   0.00000   0.00001   0.00001  -0.01513
   D35       -2.31179   0.00000   0.00000   0.00001   0.00001  -2.31178
   D36       -0.24048   0.00000   0.00000   0.00001   0.00001  -0.24046
   D37        1.87628   0.00000   0.00000   0.00001   0.00001   1.87629
   D38        0.83761   0.00000   0.00000   0.00002   0.00002   0.83762
   D39        2.90892   0.00000   0.00000   0.00002   0.00002   2.90894
   D40       -1.25752   0.00000   0.00000   0.00002   0.00002  -1.25749
   D41        1.68458   0.00000   0.00000   0.00000   0.00000   1.68458
   D42       -1.20257   0.00000   0.00000   0.00001   0.00001  -1.20256
   D43       -0.44719   0.00000   0.00000   0.00000   0.00000  -0.44719
   D44        2.94884   0.00000   0.00000   0.00002   0.00002   2.94886
   D45       -2.46626   0.00000   0.00000   0.00000   0.00000  -2.46626
   D46        0.92977   0.00000   0.00000   0.00002   0.00002   0.92979
         Item               Value     Threshold  Converged?
 Maximum Force            0.000005     0.000450     YES
 RMS     Force            0.000001     0.000300     YES
 Maximum Displacement     0.000277     0.001800     YES
 RMS     Displacement     0.000057     0.001200     YES
 Predicted change in Energy=-3.385122D-10
 Optimization completed.
    -- Stationary point found.
                           ----------------------------
                           !   Optimized Parameters   !
                           ! (Angstroms and Degrees)  !
 --------------------------                            --------------------------
 ! Name  Definition              Value          Derivative Info.                !
 --------------------------------------------------------------------------------
 ! R1    R(1,2)                  1.0806         -DE/DX =    0.0                 !
 ! R2    R(2,3)                  1.0839         -DE/DX =    0.0                 !
 ! R3    R(2,4)                  1.0857         -DE/DX =    0.0                 !
 ! R4    R(2,5)                  1.5143         -DE/DX =    0.0                 !
 ! R5    R(5,6)                  1.2018         -DE/DX =    0.0                 !
 ! R6    R(5,21)                 1.3546         -DE/DX =    0.0                 !
 ! R7    R(7,9)                  1.0755         -DE/DX =    0.0                 !
 ! R8    R(8,10)                 1.0756         -DE/DX =    0.0                 !
 ! R9    R(9,10)                 1.3825         -DE/DX =    0.0                 !
 ! R10   R(9,12)                 1.3887         -DE/DX =    0.0                 !
 ! R11   R(10,13)                1.3885         -DE/DX =    0.0                 !
 ! R12   R(11,12)                1.0756         -DE/DX =    0.0                 !
 ! R13   R(12,15)                1.3826         -DE/DX =    0.0                 !
 ! R14   R(13,14)                1.0769         -DE/DX =    0.0                 !
 ! R15   R(13,16)                1.3866         -DE/DX =    0.0                 !
 ! R16   R(15,16)                1.3933         -DE/DX =    0.0                 !
 ! R17   R(15,17)                1.0755         -DE/DX =    0.0                 !
 ! R18   R(16,20)                1.5163         -DE/DX =    0.0                 !
 ! R19   R(18,20)                1.0791         -DE/DX =    0.0                 !
 ! R20   R(19,20)                1.0839         -DE/DX =    0.0                 !
 ! R21   R(20,21)                1.4523         -DE/DX =    0.0                 !
 ! R22   R(21,22)                0.9946         -DE/DX =    0.0                 !
 ! A1    A(1,2,3)              109.7014         -DE/DX =    0.0                 !
 ! A2    A(1,2,4)              108.2489         -DE/DX =    0.0                 !
 ! A3    A(1,2,5)              108.7931         -DE/DX =    0.0                 !
 ! A4    A(3,2,4)              108.4561         -DE/DX =    0.0                 !
 ! A5    A(3,2,5)              112.7059         -DE/DX =    0.0                 !
 ! A6    A(4,2,5)              108.8366         -DE/DX =    0.0                 !
 ! A7    A(2,5,6)              121.6973         -DE/DX =    0.0                 !
 ! A8    A(2,5,21)             115.2455         -DE/DX =    0.0                 !
 ! A9    A(6,5,21)             123.0533         -DE/DX =    0.0                 !
 ! A10   A(7,9,10)             120.2092         -DE/DX =    0.0                 !
 ! A11   A(7,9,12)             120.1458         -DE/DX =    0.0                 !
 ! A12   A(10,9,12)            119.6446         -DE/DX =    0.0                 !
 ! A13   A(8,10,9)             120.1766         -DE/DX =    0.0                 !
 ! A14   A(8,10,13)            119.8407         -DE/DX =    0.0                 !
 ! A15   A(9,10,13)            119.9826         -DE/DX =    0.0                 !
 ! A16   A(9,12,11)            119.9663         -DE/DX =    0.0                 !
 ! A17   A(9,12,15)            120.2689         -DE/DX =    0.0                 !
 ! A18   A(11,12,15)           119.7641         -DE/DX =    0.0                 !
 ! A19   A(10,13,14)           119.4519         -DE/DX =    0.0                 !
 ! A20   A(10,13,16)           120.7999         -DE/DX =    0.0                 !
 ! A21   A(14,13,16)           119.7476         -DE/DX =    0.0                 !
 ! A22   A(12,15,16)           120.4868         -DE/DX =    0.0                 !
 ! A23   A(12,15,17)           120.1667         -DE/DX =    0.0                 !
 ! A24   A(16,15,17)           119.3462         -DE/DX =    0.0                 !
 ! A25   A(13,16,15)           118.8169         -DE/DX =    0.0                 !
 ! A26   A(13,16,20)           120.8789         -DE/DX =    0.0                 !
 ! A27   A(15,16,20)           120.3028         -DE/DX =    0.0                 !
 ! A28   A(16,20,18)           110.5405         -DE/DX =    0.0                 !
 ! A29   A(16,20,19)           109.7851         -DE/DX =    0.0                 !
 ! A30   A(16,20,21)           113.6234         -DE/DX =    0.0                 !
 ! A31   A(18,20,19)           107.7024         -DE/DX =    0.0                 !
 ! A32   A(18,20,21)           106.7929         -DE/DX =    0.0                 !
 ! A33   A(19,20,21)           108.1798         -DE/DX =    0.0                 !
 ! A34   A(5,21,20)            122.8851         -DE/DX =    0.0                 !
 ! A35   A(5,21,22)            118.1266         -DE/DX =    0.0                 !
 ! A36   A(20,21,22)           117.4174         -DE/DX =    0.0                 !
 ! D1    D(1,2,5,6)             29.4732         -DE/DX =    0.0                 !
 ! D2    D(1,2,5,21)          -151.2161         -DE/DX =    0.0                 !
 ! D3    D(3,2,5,6)            151.3712         -DE/DX =    0.0                 !
 ! D4    D(3,2,5,21)           -29.318          -DE/DX =    0.0                 !
 ! D5    D(4,2,5,6)            -88.275          -DE/DX =    0.0                 !
 ! D6    D(4,2,5,21)            91.0357         -DE/DX =    0.0                 !
 ! D7    D(2,5,21,20)         -173.6707         -DE/DX =    0.0                 !
 ! D8    D(2,5,21,22)           -8.3465         -DE/DX =    0.0                 !
 ! D9    D(6,5,21,20)            5.6296         -DE/DX =    0.0                 !
 ! D10   D(6,5,21,22)          170.9538         -DE/DX =    0.0                 !
 ! D11   D(7,9,10,8)             0.019          -DE/DX =    0.0                 !
 ! D12   D(7,9,10,13)         -179.8825         -DE/DX =    0.0                 !
 ! D13   D(12,9,10,8)          179.7837         -DE/DX =    0.0                 !
 ! D14   D(12,9,10,13)          -0.1179         -DE/DX =    0.0                 !
 ! D15   D(7,9,12,11)            0.1545         -DE/DX =    0.0                 !
 ! D16   D(7,9,12,15)          179.84           -DE/DX =    0.0                 !
 ! D17   D(10,9,12,11)        -179.6104         -DE/DX =    0.0                 !
 ! D18   D(10,9,12,15)           0.0751         -DE/DX =    0.0                 !
 ! D19   D(8,10,13,14)          -0.1964         -DE/DX =    0.0                 !
 ! D20   D(8,10,13,16)        -179.9126         -DE/DX =    0.0                 !
 ! D21   D(9,10,13,14)         179.7054         -DE/DX =    0.0                 !
 ! D22   D(9,10,13,16)          -0.0107         -DE/DX =    0.0                 !
 ! D23   D(9,12,15,16)           0.0967         -DE/DX =    0.0                 !
 ! D24   D(9,12,15,17)        -179.6943         -DE/DX =    0.0                 !
 ! D25   D(11,12,15,16)        179.7828         -DE/DX =    0.0                 !
 ! D26   D(11,12,15,17)         -0.0081         -DE/DX =    0.0                 !
 ! D27   D(10,13,16,15)          0.1795         -DE/DX =    0.0                 !
 ! D28   D(10,13,16,20)       -179.38           -DE/DX =    0.0                 !
 ! D29   D(14,13,16,15)       -179.5358         -DE/DX =    0.0                 !
 ! D30   D(14,13,16,20)          0.9046         -DE/DX =    0.0                 !
 ! D31   D(12,15,16,13)         -0.2221         -DE/DX =    0.0                 !
 ! D32   D(12,15,16,20)        179.34           -DE/DX =    0.0                 !
 ! D33   D(17,15,16,13)        179.5705         -DE/DX =    0.0                 !
 ! D34   D(17,15,16,20)         -0.8673         -DE/DX =    0.0                 !
 ! D35   D(13,16,20,18)       -132.4557         -DE/DX =    0.0                 !
 ! D36   D(13,16,20,19)        -13.7784         -DE/DX =    0.0                 !
 ! D37   D(13,16,20,21)        107.5027         -DE/DX =    0.0                 !
 ! D38   D(15,16,20,18)         47.9913         -DE/DX =    0.0                 !
 ! D39   D(15,16,20,19)        166.6686         -DE/DX =    0.0                 !
 ! D40   D(15,16,20,21)        -72.0503         -DE/DX =    0.0                 !
 ! D41   D(16,20,21,5)          96.5194         -DE/DX =    0.0                 !
 ! D42   D(16,20,21,22)        -68.9022         -DE/DX =    0.0                 !
 ! D43   D(18,20,21,5)         -25.6223         -DE/DX =    0.0                 !
 ! D44   D(18,20,21,22)        168.9561         -DE/DX =    0.0                 !
 ! D45   D(19,20,21,5)        -141.3064         -DE/DX =    0.0                 !
 ! D46   D(19,20,21,22)         53.272          -DE/DX =    0.0                 !
 --------------------------------------------------------------------------------
 GradGradGradGradGradGradGradGradGradGradGradGradGradGradGradGradGradGrad

                          Input orientation:                          
 ---------------------------------------------------------------------
 Center     Atomic      Atomic             Coordinates (Angstroms)
 Number     Number       Type             X           Y           Z
 ---------------------------------------------------------------------
      1          1           0       -4.394714    0.679323    0.804280
      2          6           0       -3.464716    0.268307    1.170239
      3          1           0       -3.654169   -0.672453    1.674044
      4          1           0       -3.044800    0.964905    1.889447
      5          6           0       -2.503652    0.126151    0.008728
      6          8           0       -2.547931    0.861112   -0.941076
      7          1           0        4.128104    1.153185    0.752934
      8          1           0        3.859316   -1.296200    0.786155
      9          6           0        3.201935    0.706281    0.438078
     10          6           0        3.050976   -0.667829    0.456469
     11          1           0        2.266701    2.576117   -0.016271
     12          6           0        2.152696    1.506818    0.006091
     13          6           0        1.854000   -1.239957    0.046630
     14          1           0        1.747370   -2.311503    0.059910
     15          6           0        0.962103    0.934821   -0.402360
     16          6           0        0.799641   -0.448901   -0.383845
     17          1           0        0.152295    1.556103   -0.741255
     18          1           0       -0.839283   -0.649661   -1.756929
     19          1           0       -0.383524   -2.137296   -0.963339
     20          6           0       -0.513021   -1.070979   -0.818558
     21          7           0       -1.594342   -0.870518    0.129920
     22          1           0       -1.533226   -1.346065    1.001363
 ---------------------------------------------------------------------
                    Distance matrix (angstroms):
                    1          2          3          4          5
     1  H    0.000000
     2  C    1.080628   0.000000
     3  H    1.769801   1.083855   0.000000
     4  H    1.755395   1.085743   1.760304   0.000000
     5  C    2.124857   1.514252   2.175945   2.129191   0.000000
     6  O    2.547533   2.376881   3.227141   2.875676   1.201772
     7  H    8.536135   7.655591   8.046438   7.264824   6.751950
     8  H    8.487169   7.499110   7.591434   7.348242   6.566189
     9  C    7.605518   6.721020   7.101738   6.418338   5.751053
    10  C    7.574569   6.621183   6.814799   6.471301   5.628922
    11  H    6.974638   6.291497   6.961830   5.868544   5.362763
    12  C    6.647588   5.868941   6.422692   5.554697   4.856730
    13  C    6.580585   5.641462   5.771522   5.679404   4.566927
    14  H    6.871996   5.920650   5.870991   6.086620   4.900609
    15  C    5.496976   4.744896   5.310814   4.616119   3.582513
    16  C    5.446637   4.595030   4.911345   4.684702   3.375877
    17  H    4.881876   4.288939   5.028847   4.182287   3.108262
    18  H    4.578982   4.037806   4.437981   4.557103   2.547460
    19  H    5.210323   4.453406   4.449570   4.984419   3.250085
    20  C    4.556830   3.802828   4.029727   4.229423   2.465793
    21  N    3.270910   2.424352   2.581944   2.927207   1.354578
    22  H    3.511289   2.522968   2.324791   2.900712   2.023480
                    6          7          8          9         10
     6  O    0.000000
     7  H    6.893796   0.000000
     8  H    6.977832   2.464313   0.000000
     9  C    5.914981   1.075475   2.136174   0.000000
    10  C    5.969803   2.136396   1.075619   1.382500   0.000000
    11  H    5.193957   2.466016   4.263232   2.139482   3.370720
    12  C    4.838384   2.141277   3.373123   1.388659   2.395587
    13  C    4.976651   3.376025   2.138072   2.399584   1.388542
    14  H    5.432961   4.260545   2.453281   3.371319   2.135020
    15  C    3.551899   3.377270   3.844979   2.403209   2.769380
    16  C    3.637702   3.864921   3.383552   2.789448   2.412999
    17  H    2.795382   4.266380   4.920429   3.378362   3.844837
    18  H    2.422298   5.850179   5.381647   4.794588   4.475888
    19  H    3.698054   5.841887   4.665819   4.785960   3.996371
    20  C    2.808709   5.381128   4.662956   4.305657   3.806612
    21  N    2.248312   6.101632   5.509468   5.058214   4.661190
    22  H    3.110358   6.193434   5.397065   5.191451   4.666028
                   11         12         13         14         15
    11  H    0.000000
    12  C    1.075592   0.000000
    13  C    3.838841   2.763265   0.000000
    14  H    4.915723   3.840151   1.076920   0.000000
    15  C    2.131876   1.382579   2.393059   3.371788   0.000000
    16  C    3.382027   2.409906   1.386633   2.136444   1.393350
    17  H    2.456978   2.136015   3.366677   4.259637   1.075467
    18  H    4.804443   4.087858   3.294700   3.571190   2.755074
    19  H    5.489708   4.544422   2.613765   2.370252   3.400487
    20  C    4.655301   3.798833   2.525845   2.723963   2.524370
    21  N    5.177675   4.439297   3.469076   3.639832   3.174584
    22  H    5.555046   4.766081   3.520806   3.546930   3.660539
                   16         17         18         19         20
    16  C    0.000000
    17  H    2.137017   0.000000
    18  H    2.147495   2.623016   0.000000
    19  H    2.141581   3.738665   1.746585   0.000000
    20  C    1.516258   2.711122   1.079118   1.083865   0.000000
    21  N    2.484526   3.114189   2.044283   2.065435   1.452257
    22  H    2.857617   3.781571   2.928261   2.409962   2.104425
                   21         22
    21  N    0.000000
    22  H    0.994632   0.000000
 Stoichiometry    C9H11NO
 Framework group  C1[X(C9H11NO)]
 Deg. of freedom    60
 Full point group                 C1      NOp   1
 Largest Abelian subgroup         C1      NOp   1
 Largest concise Abelian subgroup C1      NOp   1
                         Standard orientation:                         
 ---------------------------------------------------------------------
 Center     Atomic      Atomic             Coordinates (Angstroms)
 Number     Number       Type             X           Y           Z
 ---------------------------------------------------------------------
      1          1           0       -4.394714    0.679323    0.804280
      2          6           0       -3.464716    0.268307    1.170239
      3          1           0       -3.654169   -0.672453    1.674044
      4          1           0       -3.044800    0.964905    1.889447
      5          6           0       -2.503652    0.126151    0.008728
      6          8           0       -2.547931    0.861112   -0.941076
      7          1           0        4.128104    1.153185    0.752934
      8          1           0        3.859316   -1.296200    0.786155
      9          6           0        3.201935    0.706281    0.438078
     10          6           0        3.050976   -0.667829    0.456469
     11          1           0        2.266701    2.576117   -0.016271
     12          6           0        2.152696    1.506818    0.006091
     13          6           0        1.854000   -1.239957    0.046630
     14          1           0        1.747370   -2.311503    0.059910
     15          6           0        0.962103    0.934821   -0.402360
     16          6           0        0.799641   -0.448901   -0.383845
     17          1           0        0.152295    1.556103   -0.741255
     18          1           0       -0.839283   -0.649661   -1.756929
     19          1           0       -0.383524   -2.137296   -0.963339
     20          6           0       -0.513021   -1.070979   -0.818558
     21          7           0       -1.594342   -0.870518    0.129920
     22          1           0       -1.533226   -1.346065    1.001363
 ---------------------------------------------------------------------
 Rotational constants (GHZ):      2.5972400      0.5880881      0.5423770

 Test job not archived.
 1\1\GINC-LAC-349\FOpt\RHF\6-31G(d)\C9H11N1O1\SONGLIN3\29-Nov-2017\0\\#
 HF/6-31G* SCF=tight Test Pop=MK iop(6/33=2) iop(6/42=6) opt # iop(6/50
 =1)\\remark line goes here\\0,1\H,-4.394714,0.679323,0.80428\C,-3.4647
 16,0.268307,1.170239\H,-3.654169,-0.672453,1.674044\H,-3.0448,0.964905
 ,1.889447\C,-2.503652,0.126151,0.008728\O,-2.547931,0.861112,-0.941076
 \H,4.128104,1.153185,0.752934\H,3.859316,-1.2962,0.786155\C,3.201935,0
 .706281,0.438078\C,3.050976,-0.667829,0.456469\H,2.266701,2.576117,-0.
 016271\C,2.152696,1.506818,0.006091\C,1.854,-1.239957,0.04663\H,1.7473
 7,-2.311503,0.05991\C,0.962103,0.934821,-0.40236\C,0.799641,-0.448901,
 -0.383845\H,0.152295,1.556103,-0.741255\H,-0.839283,-0.649661,-1.75692
 9\H,-0.383524,-2.137296,-0.963339\C,-0.513021,-1.070979,-0.818558\N,-1
 .594342,-0.870518,0.12992\H,-1.533226,-1.346065,1.001363\\Version=ES64
 L-G09RevD.01\State=1-A\HF=-476.5546742\RMSD=3.977e-09\RMSF=1.481e-06\D
 ipole=0.3258895,-0.8569353,1.123853\Quadrupole=0.4343578,2.0949244,-2.
 5292822,3.4540178,-4.4093075,0.9137865\PG=C01 [X(C9H11N1O1)]\\@


 SEE YOU NOW,
 YOUR BAIT OF FALSEHOOD TAKES THIS CARP OF TRUTH.
 AND THUS DO WE OF WISDOM AND OF REACH...
 BY INDIRECTIONS FIND DIRECTIONS OUT.    -- HAMLET, II, 1
 Job cpu time:       0 days  0 hours  0 minutes 25.3 seconds.
 File lengths (MBytes):  RWF=    133 Int=      0 D2E=      0 Chk=      4 Scr=      2
 Normal termination of Gaussian 09 at Wed Nov 29 20:36:59 2017.
