 Entering Gaussian System, Link 0=g09
 Initial command:
 /opt/software/Gaussian/g09/l1.exe "/mnt/ls15/scratch/users/songlin3/Gau-32307.inp" -scrdir="/mnt/ls15/scratch/users/songlin3/"
 Entering Link 1 = /opt/software/Gaussian/g09/l1.exe PID=     32308.
  
 Copyright (c) 1988,1990,1992,1993,1995,1998,2003,2009,2013,
            Gaussian, Inc.  All Rights Reserved.
  
 This is part of the Gaussian(R) 09 program.  It is based on
 the Gaussian(R) 03 system (copyright 2003, Gaussian, Inc.),
 the Gaussian(R) 98 system (copyright 1998, Gaussian, Inc.),
 the Gaussian(R) 94 system (copyright 1995, Gaussian, Inc.),
 the Gaussian 92(TM) system (copyright 1992, Gaussian, Inc.),
 the Gaussian 90(TM) system (copyright 1990, Gaussian, Inc.),
 the Gaussian 88(TM) system (copyright 1988, Gaussian, Inc.),
 the Gaussian 86(TM) system (copyright 1986, Carnegie Mellon
 University), and the Gaussian 82(TM) system (copyright 1983,
 Carnegie Mellon University). Gaussian is a federally registered
 trademark of Gaussian, Inc.
  
 This software contains proprietary and confidential information,
 including trade secrets, belonging to Gaussian, Inc.
  
 This software is provided under written license and may be
 used, copied, transmitted, or stored only in accord with that
 written license.
  
 The following legend is applicable only to US Government
 contracts under FAR:
  
                    RESTRICTED RIGHTS LEGEND
  
 Use, reproduction and disclosure by the US Government is
 subject to restrictions as set forth in subparagraphs (a)
 and (c) of the Commercial Computer Software - Restricted
 Rights clause in FAR 52.227-19.
  
 Gaussian, Inc.
 340 Quinnipiac St., Bldg. 40, Wallingford CT 06492
  
  
 ---------------------------------------------------------------
 Warning -- This program may not be used in any manner that
 competes with the business of Gaussian, Inc. or will provide
 assistance to any competitor of Gaussian, Inc.  The licensee
 of this program is prohibited from giving any competitor of
 Gaussian, Inc. access to this program.  By using this program,
 the user acknowledges that Gaussian, Inc. is engaged in the
 business of creating and licensing software in the field of
 computational chemistry and represents and warrants to the
 licensee that it is not a competitor of Gaussian, Inc. and that
 it will not use this program in any manner prohibited above.
 ---------------------------------------------------------------
  

 Cite this work as:
 Gaussian 09, Revision D.01,
 M. J. Frisch, G. W. Trucks, H. B. Schlegel, G. E. Scuseria, 
 M. A. Robb, J. R. Cheeseman, G. Scalmani, V. Barone, B. Mennucci, 
 G. A. Petersson, H. Nakatsuji, M. Caricato, X. Li, H. P. Hratchian, 
 A. F. Izmaylov, J. Bloino, G. Zheng, J. L. Sonnenberg, M. Hada, 
 M. Ehara, K. Toyota, R. Fukuda, J. Hasegawa, M. Ishida, T. Nakajima, 
 Y. Honda, O. Kitao, H. Nakai, T. Vreven, J. A. Montgomery, Jr., 
 J. E. Peralta, F. Ogliaro, M. Bearpark, J. J. Heyd, E. Brothers, 
 K. N. Kudin, V. N. Staroverov, T. Keith, R. Kobayashi, J. Normand, 
 K. Raghavachari, A. Rendell, J. C. Burant, S. S. Iyengar, J. Tomasi, 
 M. Cossi, N. Rega, J. M. Millam, M. Klene, J. E. Knox, J. B. Cross, 
 V. Bakken, C. Adamo, J. Jaramillo, R. Gomperts, R. E. Stratmann, 
 O. Yazyev, A. J. Austin, R. Cammi, C. Pomelli, J. W. Ochterski, 
 R. L. Martin, K. Morokuma, V. G. Zakrzewski, G. A. Voth, 
 P. Salvador, J. J. Dannenberg, S. Dapprich, A. D. Daniels, 
 O. Farkas, J. B. Foresman, J. V. Ortiz, J. Cioslowski, 
 and D. J. Fox, Gaussian, Inc., Wallingford CT, 2013.
 
 ******************************************
 Gaussian 09:  ES64L-G09RevD.01 24-Apr-2013
                29-Nov-2017 
 ******************************************
 %RWF=myrwf
 %NoSave
 %chk=opt.chk
 %NprocShared=4
 Will use up to    4 processors via shared memory.
 %Mem=16GB
 ------------------------------------------------------------
 #HF/6-31G* SCF=tight Test Pop=MK iop(6/33=2) iop(6/42=6) opt
 ------------------------------------------------------------
 1/18=20,19=15,38=1/1,3;
 2/9=110,12=2,17=6,18=5,40=1/2;
 3/5=1,6=6,7=1,11=9,16=1,25=1,30=1,71=1/1,2,3;
 4//1;
 5/5=2,32=2,38=5/2;
 6/7=2,8=2,9=2,10=2,15=8,20=1,28=1,33=2,42=6/1,2;
 7//1,2,3,16;
 1/18=20,19=15/3(2);
 2/9=110/2;
 99//99;
 2/9=110/2;
 3/5=1,6=6,7=1,11=9,16=1,25=1,30=1,71=1/1,2,3;
 4/5=5,16=3,69=1/1;
 5/5=2,32=2,38=5/2;
 7//1,2,3,16;
 1/18=20,19=15/3(-5);
 2/9=110/2;
 6/7=2,8=2,9=2,10=2,15=8,19=2,20=1,28=1,33=2,42=6/1,2;
 99/9=1/99;
 ---------------------
 remark line goes here
 ---------------------
 Symbolic Z-matrix:
 Charge =  0 Multiplicity = 1
 H                     18.694   -12.899    20.679 
 C                     18.228   -11.959    20.975 
 H                     18.869   -11.127    20.684 
 H                     18.087   -11.948    22.056 
 C                     16.853   -11.783    20.296 
 O                     16.428   -12.653    19.533 
 H                     10.821   -11.958    23.423 
 H                     11.143   -9.539     22.95 
 C                     11.626   -11.633    22.778 
 C                     11.808   -10.264    22.506 
 H                     12.361   -13.633    22.424 
 C                     12.494   -12.582    22.207 
 C                     12.85    -9.847     21.654 
 H                     12.973   -8.797     21.442 
 C                     13.54    -12.166    21.362 
 C                     13.722   -10.796    21.076 
 H                     14.201   -12.904    20.932 
 H                     14.639   -10.769    19.145 
 H                     14.776   -9.261     20.024 
 C                     14.826   -10.344    20.133 
 N                     16.169   -10.673    20.59 
 H                     16.631   -9.977     21.173 
 

 GradGradGradGradGradGradGradGradGradGradGradGradGradGradGradGradGradGrad
 Berny optimization.
 Initialization pass.
                           ----------------------------
                           !    Initial Parameters    !
                           ! (Angstroms and Degrees)  !
 --------------------------                            --------------------------
 ! Name  Definition              Value          Derivative Info.                !
 --------------------------------------------------------------------------------
 ! R1    R(1,2)                  1.0901         estimate D2E/DX2                !
 ! R2    R(2,3)                  1.0899         estimate D2E/DX2                !
 ! R3    R(2,4)                  1.0902         estimate D2E/DX2                !
 ! R4    R(2,5)                  1.5436         estimate D2E/DX2                !
 ! R5    R(5,6)                  1.2328         estimate D2E/DX2                !
 ! R6    R(5,21)                 1.3366         estimate D2E/DX2                !
 ! R7    R(7,9)                  1.0815         estimate D2E/DX2                !
 ! R8    R(8,10)                 1.0793         estimate D2E/DX2                !
 ! R9    R(9,10)                 1.4076         estimate D2E/DX2                !
 ! R10   R(9,12)                 1.4071         estimate D2E/DX2                !
 ! R11   R(10,13)                1.4091         estimate D2E/DX2                !
 ! R12   R(11,12)                1.0814         estimate D2E/DX2                !
 ! R13   R(12,15)                1.4075         estimate D2E/DX2                !
 ! R14   R(13,14)                1.0782         estimate D2E/DX2                !
 ! R15   R(13,16)                1.4125         estimate D2E/DX2                !
 ! R16   R(15,16)                1.4113         estimate D2E/DX2                !
 ! R17   R(15,17)                1.08           estimate D2E/DX2                !
 ! R18   R(16,20)                1.5206         estimate D2E/DX2                !
 ! R19   R(18,20)                1.0917         estimate D2E/DX2                !
 ! R20   R(19,20)                1.0896         estimate D2E/DX2                !
 ! R21   R(20,21)                1.4563         estimate D2E/DX2                !
 ! R22   R(21,22)                1.0187         estimate D2E/DX2                !
 ! A1    A(1,2,3)              109.5332         estimate D2E/DX2                !
 ! A2    A(1,2,4)              109.4644         estimate D2E/DX2                !
 ! A3    A(1,2,5)              111.0796         estimate D2E/DX2                !
 ! A4    A(3,2,4)              109.458          estimate D2E/DX2                !
 ! A5    A(3,2,5)              108.6278         estimate D2E/DX2                !
 ! A6    A(4,2,5)              108.6515         estimate D2E/DX2                !
 ! A7    A(2,5,6)              119.927          estimate D2E/DX2                !
 ! A8    A(2,5,21)             116.9879         estimate D2E/DX2                !
 ! A9    A(6,5,21)             123.0807         estimate D2E/DX2                !
 ! A10   A(7,9,10)             120.2488         estimate D2E/DX2                !
 ! A11   A(7,9,12)             119.8994         estimate D2E/DX2                !
 ! A12   A(10,9,12)            119.8518         estimate D2E/DX2                !
 ! A13   A(8,10,9)             119.6131         estimate D2E/DX2                !
 ! A14   A(8,10,13)            120.3679         estimate D2E/DX2                !
 ! A15   A(9,10,13)            120.0185         estimate D2E/DX2                !
 ! A16   A(9,12,11)            119.8791         estimate D2E/DX2                !
 ! A17   A(9,12,15)            120.178          estimate D2E/DX2                !
 ! A18   A(11,12,15)           119.9414         estimate D2E/DX2                !
 ! A19   A(10,13,14)           119.4345         estimate D2E/DX2                !
 ! A20   A(10,13,16)           120.3394         estimate D2E/DX2                !
 ! A21   A(14,13,16)           120.2252         estimate D2E/DX2                !
 ! A22   A(12,15,16)           120.2906         estimate D2E/DX2                !
 ! A23   A(12,15,17)           119.464          estimate D2E/DX2                !
 ! A24   A(16,15,17)           120.2453         estimate D2E/DX2                !
 ! A25   A(13,16,15)           119.3185         estimate D2E/DX2                !
 ! A26   A(13,16,20)           120.1498         estimate D2E/DX2                !
 ! A27   A(15,16,20)           120.5195         estimate D2E/DX2                !
 ! A28   A(16,20,18)           108.733          estimate D2E/DX2                !
 ! A29   A(16,20,19)           108.9145         estimate D2E/DX2                !
 ! A30   A(16,20,21)           114.0652         estimate D2E/DX2                !
 ! A31   A(18,20,19)           106.7713         estimate D2E/DX2                !
 ! A32   A(18,20,21)           110.7342         estimate D2E/DX2                !
 ! A33   A(19,20,21)           107.3529         estimate D2E/DX2                !
 ! A34   A(5,21,20)            126.196          estimate D2E/DX2                !
 ! A35   A(5,21,22)            117.4648         estimate D2E/DX2                !
 ! A36   A(20,21,22)           116.3264         estimate D2E/DX2                !
 ! D1    D(1,2,5,6)             -0.0283         estimate D2E/DX2                !
 ! D2    D(1,2,5,21)           179.231          estimate D2E/DX2                !
 ! D3    D(3,2,5,6)            120.5072         estimate D2E/DX2                !
 ! D4    D(3,2,5,21)           -60.2335         estimate D2E/DX2                !
 ! D5    D(4,2,5,6)           -120.4938         estimate D2E/DX2                !
 ! D6    D(4,2,5,21)            58.7655         estimate D2E/DX2                !
 ! D7    D(2,5,21,20)         -175.928          estimate D2E/DX2                !
 ! D8    D(2,5,21,22)            5.4247         estimate D2E/DX2                !
 ! D9    D(6,5,21,20)            3.3059         estimate D2E/DX2                !
 ! D10   D(6,5,21,22)         -175.3414         estimate D2E/DX2                !
 ! D11   D(7,9,10,8)             0.3841         estimate D2E/DX2                !
 ! D12   D(7,9,10,13)         -179.3496         estimate D2E/DX2                !
 ! D13   D(12,9,10,8)         -179.6933         estimate D2E/DX2                !
 ! D14   D(12,9,10,13)           0.5731         estimate D2E/DX2                !
 ! D15   D(7,9,12,11)           -0.7219         estimate D2E/DX2                !
 ! D16   D(7,9,12,15)          179.7198         estimate D2E/DX2                !
 ! D17   D(10,9,12,11)         179.3552         estimate D2E/DX2                !
 ! D18   D(10,9,12,15)          -0.2031         estimate D2E/DX2                !
 ! D19   D(8,10,13,14)          -0.5145         estimate D2E/DX2                !
 ! D20   D(8,10,13,16)         179.8381         estimate D2E/DX2                !
 ! D21   D(9,10,13,14)         179.2171         estimate D2E/DX2                !
 ! D22   D(9,10,13,16)          -0.4303         estimate D2E/DX2                !
 ! D23   D(9,12,15,16)          -0.3132         estimate D2E/DX2                !
 ! D24   D(9,12,15,17)         179.8416         estimate D2E/DX2                !
 ! D25   D(11,12,15,16)       -179.8712         estimate D2E/DX2                !
 ! D26   D(11,12,15,17)          0.2836         estimate D2E/DX2                !
 ! D27   D(10,13,16,15)         -0.0833         estimate D2E/DX2                !
 ! D28   D(10,13,16,20)        178.6534         estimate D2E/DX2                !
 ! D29   D(14,13,16,15)       -179.7279         estimate D2E/DX2                !
 ! D30   D(14,13,16,20)         -0.9911         estimate D2E/DX2                !
 ! D31   D(12,15,16,13)          0.4544         estimate D2E/DX2                !
 ! D32   D(12,15,16,20)       -178.2776         estimate D2E/DX2                !
 ! D33   D(17,15,16,13)       -179.7017         estimate D2E/DX2                !
 ! D34   D(17,15,16,20)          1.5664         estimate D2E/DX2                !
 ! D35   D(13,16,20,18)       -116.4585         estimate D2E/DX2                !
 ! D36   D(13,16,20,19)         -0.4638         estimate D2E/DX2                !
 ! D37   D(13,16,20,21)        119.4252         estimate D2E/DX2                !
 ! D38   D(15,16,20,18)         62.2629         estimate D2E/DX2                !
 ! D39   D(15,16,20,19)        178.2576         estimate D2E/DX2                !
 ! D40   D(15,16,20,21)        -61.8534         estimate D2E/DX2                !
 ! D41   D(16,20,21,5)          91.5773         estimate D2E/DX2                !
 ! D42   D(16,20,21,22)        -89.7619         estimate D2E/DX2                !
 ! D43   D(18,20,21,5)         -31.4574         estimate D2E/DX2                !
 ! D44   D(18,20,21,22)        147.2034         estimate D2E/DX2                !
 ! D45   D(19,20,21,5)        -147.6593         estimate D2E/DX2                !
 ! D46   D(19,20,21,22)         31.0015         estimate D2E/DX2                !
 --------------------------------------------------------------------------------
 Trust Radius=3.00D-01 FncErr=1.00D-07 GrdErr=1.00D-07
 Number of steps in this run=    114 maximum allowed number of steps=    132.
 GradGradGradGradGradGradGradGradGradGradGradGradGradGradGradGradGradGrad

                          Input orientation:                          
 ---------------------------------------------------------------------
 Center     Atomic      Atomic             Coordinates (Angstroms)
 Number     Number       Type             X           Y           Z
 ---------------------------------------------------------------------
      1          1           0       18.694000  -12.899000   20.679000
      2          6           0       18.228000  -11.959000   20.975000
      3          1           0       18.869000  -11.127000   20.684000
      4          1           0       18.087000  -11.948000   22.056000
      5          6           0       16.853000  -11.783000   20.296000
      6          8           0       16.428000  -12.653000   19.533000
      7          1           0       10.821000  -11.958000   23.423000
      8          1           0       11.143000   -9.539000   22.950000
      9          6           0       11.626000  -11.633000   22.778000
     10          6           0       11.808000  -10.264000   22.506000
     11          1           0       12.361000  -13.633000   22.424000
     12          6           0       12.494000  -12.582000   22.207000
     13          6           0       12.850000   -9.847000   21.654000
     14          1           0       12.973000   -8.797000   21.442000
     15          6           0       13.540000  -12.166000   21.362000
     16          6           0       13.722000  -10.796000   21.076000
     17          1           0       14.201000  -12.904000   20.932000
     18          1           0       14.639000  -10.769000   19.145000
     19          1           0       14.776000   -9.261000   20.024000
     20          6           0       14.826000  -10.344000   20.133000
     21          7           0       16.169000  -10.673000   20.590000
     22          1           0       16.631000   -9.977000   21.173000
 ---------------------------------------------------------------------
                    Distance matrix (angstroms):
                    1          2          3          4          5
     1  H    0.000000
     2  C    1.090125   0.000000
     3  H    1.780627   1.089856   0.000000
     4  H    1.780163   1.090212   1.779873   0.000000
     5  C    2.186647   1.543581   2.155258   2.155825   0.000000
     6  O    2.551193   2.408527   3.100316   3.100780   1.232759
     7  H    8.390420   7.801048   8.541837   7.393480   6.796600
     8  H    8.571152   7.743013   8.206557   7.404165   6.684561
     9  C    7.480988   6.851532   7.556581   6.508842   5.788294
    10  C    7.595930   6.814205   7.343172   6.516456   5.713448
    11  H    6.609892   6.270851   7.187607   5.980111   5.303673
    12  C    6.393377   5.897856   6.713954   5.630844   4.826096
    13  C    6.664658   5.817600   6.229580   5.657029   4.649330
    14  H    7.080848   6.150720   6.384848   6.038112   5.028311
    15  C    5.250476   4.708499   5.471512   4.604820   3.501287
    16  C    5.413040   4.654762   5.172508   4.619603   3.374275
    17  H    4.500120   4.136617   5.000946   4.156718   2.948600
    18  H    4.830433   4.200705   4.515483   4.663975   2.693472
    19  H    5.386538   4.483292   4.546450   4.723528   3.278475
    20  C    4.667715   3.858859   4.154821   4.111553   2.491188
    21  N    3.367287   2.457947   2.739517   2.730111   1.336560
    22  H    3.610829   2.553025   2.563253   2.604701   2.019913
                    6          7          8          9         10
     6  O    0.000000
     7  H    6.859561   0.000000
     8  H    7.021689   2.485754   0.000000
     9  C    5.884694   1.081515   2.155855   0.000000
    10  C    5.990864   2.164415   1.079345   1.407576   0.000000
    11  H    5.085152   2.485000   4.303607   2.159986   3.415069
    12  C    4.757276   2.160315   3.411319   1.407148   2.435800
    13  C    5.017406   3.420895   2.165255   2.439538   1.409098
    14  H    5.518156   4.306668   2.484659   3.412067   2.154393
    15  C    3.452963   3.418179   3.894674   2.439783   2.815344
    16  C    3.626532   3.908255   3.426830   2.826763   2.447717
    17  H    2.641918   4.303998   4.974627   3.413764   3.895321
    18  H    2.626884   5.855948   5.311586   4.798266   4.423337
    19  H    3.804714   5.871034   4.673056   4.809719   3.996918
    20  C    2.873654   5.428547   4.706166   4.347131   3.840033
    21  N    2.259365   6.186939   5.667118   5.133010   4.780864
    22  H    3.145121   6.537810   5.785129   5.510752   5.012044
                   11         12         13         14         15
    11  H    0.000000
    12  C    1.081378   0.000000
    13  C    3.894331   2.812965   0.000000
    14  H    4.972501   3.891130   1.078227   0.000000
    15  C    2.161012   1.407550   2.437032   3.417316   0.000000
    16  C    3.423156   2.444778   1.412469   2.165862   1.411319
    17  H    2.478529   2.154799   3.419318   4.316889   1.080030
    18  H    4.913616   4.154977   3.216471   3.455510   2.841566
    19  H    5.541354   4.582800   2.590323   2.340263   3.428843
    20  C    4.705574   3.840357   2.542642   2.745960   2.546354
    21  N    5.160041   4.445739   3.581918   3.802591   3.120364
    22  H    5.758840   4.996994   3.813689   3.853015   3.792324
                   16         17         18         19         20
    16  C    0.000000
    17  H    2.166527   0.000000
    18  H    2.137844   2.818411   0.000000
    19  H    2.138655   3.798228   1.750850   0.000000
    20  C    1.520648   2.753657   1.091668   1.089619   0.000000
    21  N    2.497826   2.994553   2.106690   2.062656   1.456276
    22  H    3.023649   3.811864   2.950951   2.296493   2.115257
                   21         22
    21  N    0.000000
    22  H    1.018700   0.000000
 Stoichiometry    C9H11NO
 Framework group  C1[X(C9H11NO)]
 Deg. of freedom    60
 Full point group                 C1      NOp   1
 Largest Abelian subgroup         C1      NOp   1
 Largest concise Abelian subgroup C1      NOp   1
                         Standard orientation:                         
 ---------------------------------------------------------------------
 Center     Atomic      Atomic             Coordinates (Angstroms)
 Number     Number       Type             X           Y           Z
 ---------------------------------------------------------------------
      1          1           0       -4.223270    1.173245    0.830144
      2          6           0       -3.566232    0.339762    1.079100
      3          1           0       -4.155567   -0.571537    1.179123
      4          1           0       -3.056344    0.547620    2.020042
      5          6           0       -2.504595    0.122214   -0.020101
      6          8           0       -2.488803    0.852607   -1.013061
      7          1           0        4.163456    1.279783    0.605132
      8          1           0        4.011141   -1.200395    0.672175
      9          6           0        3.232914    0.785816    0.360666
     10          6           0        3.145422   -0.618628    0.394571
     11          1           0        2.169345    2.628834   -0.010340
     12          6           0        2.105558    1.549458    0.005721
     13          6           0        1.934469   -1.257737    0.061869
     14          1           0        1.881582   -2.334535    0.078686
     15          6           0        0.893209    0.912435   -0.319254
     16          6           0        0.800956   -0.495705   -0.298025
     17          1           0        0.034417    1.509896   -0.587548
     18          1           0       -0.721156   -0.954518   -1.727376
     19          1           0       -0.346910   -2.268870   -0.632893
     20          6           0       -0.494816   -1.190636   -0.685860
     21          7           0       -1.624020   -0.864368    0.173900
     22          1           0       -1.759453   -1.461675    0.987922
 ---------------------------------------------------------------------
 Rotational constants (GHZ):      2.5873482      0.5803702      0.5272245
 Standard basis: 6-31G(d) (6D, 7F)
 There are   187 symmetry adapted cartesian basis functions of A   symmetry.
 There are   187 symmetry adapted basis functions of A   symmetry.
   187 basis functions,   352 primitive gaussians,   187 cartesian basis functions
    40 alpha electrons       40 beta electrons
       nuclear repulsion energy       567.5644514833 Hartrees.
 NAtoms=   22 NActive=   22 NUniq=   22 SFac= 1.00D+00 NAtFMM=   60 NAOKFM=F Big=F
 Integral buffers will be    131072 words long.
 Raffenetti 1 integral format.
 Two-electron integral symmetry is turned on.
 One-electron integrals computed using PRISM.
 NBasis=   187 RedAO= T EigKep=  5.09D-04  NBF=   187
 NBsUse=   187 1.00D-06 EigRej= -1.00D+00 NBFU=   187
 ExpMin= 1.61D-01 ExpMax= 5.48D+03 ExpMxC= 8.25D+02 IAcc=1 IRadAn=         1 AccDes= 0.00D+00
 Harris functional with IExCor=  205 and IRadAn=       1 diagonalized for initial guess.
 HarFok:  IExCor=  205 AccDes= 0.00D+00 IRadAn=         1 IDoV= 1 UseB2=F ITyADJ=14
 ICtDFT=  3500011 ScaDFX=  1.000000  1.000000  1.000000  1.000000
 FoFCou: FMM=F IPFlag=           0 FMFlag=      100000 FMFlg1=           0
         NFxFlg=           0 DoJE=T BraDBF=F KetDBF=T FulRan=T
         wScrn=  0.000000 ICntrl=     500 IOpCl=  0 I1Cent=   200000004 NGrid=           0
         NMat0=    1 NMatS0=      1 NMatT0=    0 NMatD0=    1 NMtDS0=    0 NMtDT0=    0
 Petite list used in FoFCou.
 Keep R1 ints in memory in canonical form, NReq=157950071.
 Requested convergence on RMS density matrix=1.00D-08 within 128 cycles.
 Requested convergence on MAX density matrix=1.00D-06.
 Requested convergence on             energy=1.00D-06.
 No special actions if energy rises.
 SCF Done:  E(RHF) =  -476.545797312     A.U. after   15 cycles
            NFock= 15  Conv=0.54D-08     -V/T= 2.0025

 **********************************************************************

            Population analysis using the SCF density.

 **********************************************************************

 Orbital symmetries:
 BldTbl:  Degeneracy threshold= 1.00D-02
       Occupied  (A) (A) (A) (A) (A) (A) (A) (A) (A) (A) (A) (A)
                 (A) (A) (A) (A) (A) (A) (A) (A) (A) (A) (A) (A)
                 (A) (A) (A) (A) (A) (A) (A) (A) (A) (A) (A) (A)
                 (A) (A) (A) (A)
       Virtual   (A) (A) (A) (A) (A) (A) (A) (A) (A) (A) (A) (A)
                 (A) (A) (A) (A) (A) (A) (A) (A) (A) (A) (A) (A)
                 (A) (A) (A) (A) (A) (A) (A) (A) (A) (A) (A) (A)
                 (A) (A) (A) (A) (A) (A) (A) (A) (A) (A) (A) (A)
                 (A) (A) (A) (A) (A) (A) (A) (A) (A) (A) (A) (A)
                 (A) (A) (A) (A) (A) (A) (A) (A) (A) (A) (A) (A)
                 (A) (A) (A) (A) (A) (A) (A) (A) (A) (A) (A) (A)
                 (A) (A) (A) (A) (A) (A) (A) (A) (A) (A) (A) (A)
                 (A) (A) (A) (A) (A) (A) (A) (A) (A) (A) (A) (A)
                 (A) (A) (A) (A) (A) (A) (A) (A) (A) (A) (A) (A)
                 (A) (A) (A) (A) (A) (A) (A) (A) (A) (A) (A) (A)
                 (A) (A) (A) (A) (A) (A) (A) (A) (A) (A) (A) (A)
                 (A) (A) (A)
 The electronic state is 1-A.
 Alpha  occ. eigenvalues --  -20.51397 -15.59431 -11.35002 -11.27511 -11.24293
 Alpha  occ. eigenvalues --  -11.23770 -11.23761 -11.23654 -11.23513 -11.23406
 Alpha  occ. eigenvalues --  -11.22979  -1.36629  -1.23503  -1.13862  -1.04181
 Alpha  occ. eigenvalues --   -1.00452  -0.99473  -0.92595  -0.82203  -0.80634
 Alpha  occ. eigenvalues --   -0.77972  -0.69729  -0.68408  -0.64963  -0.64232
 Alpha  occ. eigenvalues --   -0.61753  -0.61477  -0.58067  -0.57865  -0.56576
 Alpha  occ. eigenvalues --   -0.56047  -0.54359  -0.51539  -0.48943  -0.48513
 Alpha  occ. eigenvalues --   -0.48277  -0.40995  -0.38758  -0.32753  -0.32111
 Alpha virt. eigenvalues --    0.13765   0.14339   0.20367   0.21009   0.24524
 Alpha virt. eigenvalues --    0.26138   0.28103   0.29529   0.30536   0.31553
 Alpha virt. eigenvalues --    0.32174   0.33099   0.34706   0.34935   0.35646
 Alpha virt. eigenvalues --    0.38761   0.41924   0.44042   0.47462   0.48505
 Alpha virt. eigenvalues --    0.49203   0.52961   0.54137   0.58362   0.66124
 Alpha virt. eigenvalues --    0.72169   0.73013   0.74248   0.75087   0.75946
 Alpha virt. eigenvalues --    0.76898   0.77971   0.80678   0.80950   0.82082
 Alpha virt. eigenvalues --    0.82672   0.83591   0.84157   0.84515   0.85356
 Alpha virt. eigenvalues --    0.88620   0.90265   0.92956   0.94325   0.96415
 Alpha virt. eigenvalues --    0.98015   0.99056   1.02484   1.07658   1.09655
 Alpha virt. eigenvalues --    1.10462   1.11689   1.12280   1.13391   1.14537
 Alpha virt. eigenvalues --    1.14991   1.16168   1.17689   1.18262   1.19505
 Alpha virt. eigenvalues --    1.20184   1.20872   1.21128   1.22207   1.24932
 Alpha virt. eigenvalues --    1.30428   1.33941   1.35423   1.37123   1.41152
 Alpha virt. eigenvalues --    1.41390   1.46001   1.50295   1.51970   1.53121
 Alpha virt. eigenvalues --    1.58812   1.64147   1.65057   1.68618   1.70534
 Alpha virt. eigenvalues --    1.72251   1.74450   1.76450   1.78185   1.79305
 Alpha virt. eigenvalues --    1.80631   1.84668   1.93274   1.98255   2.05734
 Alpha virt. eigenvalues --    2.08987   2.10557   2.12482   2.13498   2.14921
 Alpha virt. eigenvalues --    2.16679   2.21976   2.23793   2.24188   2.27466
 Alpha virt. eigenvalues --    2.31114   2.32218   2.35258   2.36922   2.38081
 Alpha virt. eigenvalues --    2.42000   2.44521   2.45735   2.49572   2.51091
 Alpha virt. eigenvalues --    2.52882   2.55717   2.60638   2.62615   2.62889
 Alpha virt. eigenvalues --    2.64852   2.68818   2.70768   2.77722   2.80344
 Alpha virt. eigenvalues --    2.88996   2.90952   2.91712   2.97782   3.03459
 Alpha virt. eigenvalues --    3.05925   3.07413   3.08839   3.09014   3.12705
 Alpha virt. eigenvalues --    3.21109   3.25697   3.34412   3.42138   3.53613
 Alpha virt. eigenvalues --    3.75803   4.38891   4.46483   4.50907   4.54285
 Alpha virt. eigenvalues --    4.56960   4.62806   4.73044   4.76297   4.83079
 Alpha virt. eigenvalues --    4.90649   5.12176
          Condensed to atoms (all electrons):
               1          2          3          4          5          6
     1  H    0.453607   0.385359  -0.018661  -0.018661  -0.029239   0.003720
     2  C    0.385359   5.253408   0.371855   0.374561   0.373339  -0.068036
     3  H   -0.018661   0.371855   0.519537  -0.024488  -0.033833   0.001319
     4  H   -0.018661   0.374561  -0.024488   0.512485  -0.035061   0.001117
     5  C   -0.029239   0.373339  -0.033833  -0.035061   4.186787   0.582870
     6  O    0.003720  -0.068036   0.001319   0.001117   0.582870   8.203204
     7  H    0.000000   0.000000   0.000000   0.000000   0.000000   0.000000
     8  H    0.000000   0.000000   0.000000   0.000000   0.000000   0.000000
     9  C    0.000000   0.000000   0.000000   0.000000  -0.000001   0.000000
    10  C    0.000000   0.000000   0.000000   0.000000   0.000000   0.000000
    11  H    0.000000   0.000000   0.000000   0.000000   0.000001  -0.000003
    12  C    0.000000   0.000003   0.000000  -0.000002   0.000071   0.000116
    13  C    0.000000  -0.000004   0.000000   0.000001  -0.000093  -0.000030
    14  H    0.000000   0.000000   0.000000   0.000000  -0.000001   0.000000
    15  C    0.000000  -0.000002  -0.000002   0.000035   0.002330  -0.002262
    16  C    0.000004  -0.000374   0.000006   0.000067  -0.004477  -0.003262
    17  H   -0.000002   0.000273   0.000001  -0.000067   0.001555   0.010118
    18  H    0.000001   0.000180  -0.000013  -0.000003   0.000735   0.004317
    19  H    0.000001  -0.000012  -0.000005  -0.000006   0.002894   0.000349
    20  C   -0.000065   0.003931  -0.000172  -0.000210  -0.016459   0.008987
    21  N    0.003534  -0.117668   0.003603   0.003786   0.244317  -0.103964
    22  H   -0.000001  -0.000424   0.000705   0.000356  -0.021083   0.002414
               7          8          9         10         11         12
     1  H    0.000000   0.000000   0.000000   0.000000   0.000000   0.000000
     2  C    0.000000   0.000000   0.000000   0.000000   0.000000   0.000003
     3  H    0.000000   0.000000   0.000000   0.000000   0.000000   0.000000
     4  H    0.000000   0.000000   0.000000   0.000000   0.000000  -0.000002
     5  C    0.000000   0.000000  -0.000001   0.000000   0.000001   0.000071
     6  O    0.000000   0.000000   0.000000   0.000000  -0.000003   0.000116
     7  H    0.475451  -0.001320   0.382978  -0.030383  -0.001288  -0.030611
     8  H   -0.001320   0.475761  -0.030377   0.382333  -0.000102   0.002469
     9  C    0.382978  -0.030377   4.902455   0.552403  -0.030811   0.542317
    10  C   -0.030383   0.382333   0.552403   4.896310   0.002379  -0.042791
    11  H   -0.001288  -0.000102  -0.030811   0.002379   0.470838   0.382040
    12  C   -0.030611   0.002469   0.542317  -0.042791   0.382040   4.909527
    13  C    0.002417  -0.029987  -0.046140   0.538699   0.000239  -0.033022
    14  H   -0.000103  -0.001237   0.002411  -0.029498   0.000009   0.000088
    15  C    0.002376   0.000140  -0.044925  -0.032866  -0.028545   0.534725
    16  C    0.000188   0.002114  -0.028385  -0.042765   0.002062  -0.042091
    17  H   -0.000088   0.000007   0.002196   0.000083  -0.001096  -0.025997
    18  H    0.000000   0.000002   0.000009  -0.000082   0.000001   0.000013
    19  H    0.000000  -0.000005  -0.000022   0.000300   0.000002  -0.000021
    20  C    0.000005  -0.000095   0.000167   0.003084  -0.000104   0.002175
    21  N    0.000000   0.000001  -0.000007  -0.000020   0.000005  -0.000043
    22  H    0.000000   0.000000  -0.000002   0.000001   0.000000   0.000001
              13         14         15         16         17         18
     1  H    0.000000   0.000000   0.000000   0.000004  -0.000002   0.000001
     2  C   -0.000004   0.000000  -0.000002  -0.000374   0.000273   0.000180
     3  H    0.000000   0.000000  -0.000002   0.000006   0.000001  -0.000013
     4  H    0.000001   0.000000   0.000035   0.000067  -0.000067  -0.000003
     5  C   -0.000093  -0.000001   0.002330  -0.004477   0.001555   0.000735
     6  O   -0.000030   0.000000  -0.002262  -0.003262   0.010118   0.004317
     7  H    0.002417  -0.000103   0.002376   0.000188  -0.000088   0.000000
     8  H   -0.029987  -0.001237   0.000140   0.002114   0.000007   0.000002
     9  C   -0.046140   0.002411  -0.044925  -0.028385   0.002196   0.000009
    10  C    0.538699  -0.029498  -0.032866  -0.042765   0.000083  -0.000082
    11  H    0.000239   0.000009  -0.028545   0.002062  -0.001096   0.000001
    12  C   -0.033022   0.000088   0.534725  -0.042091  -0.025997   0.000013
    13  C    4.930387   0.380775  -0.040925   0.564212   0.002216   0.000791
    14  H    0.380775   0.483643   0.002697  -0.033107  -0.000094   0.000073
    15  C   -0.040925   0.002697   4.956340   0.549401   0.369646  -0.002602
    16  C    0.564212  -0.033107   0.549401   4.881723  -0.026675  -0.042650
    17  H    0.002216  -0.000094   0.369646  -0.026675   0.421749   0.000119
    18  H    0.000791   0.000073  -0.002602  -0.042650   0.000119   0.461942
    19  H   -0.000712   0.002569   0.003176  -0.061071  -0.000073  -0.022406
    20  C   -0.037266  -0.003136  -0.043334   0.331365   0.000626   0.406417
    21  N   -0.000187   0.000051  -0.000647  -0.068281  -0.002986  -0.038943
    22  H    0.000236  -0.000001   0.000211   0.001848  -0.000046   0.002567
              19         20         21         22
     1  H    0.000001  -0.000065   0.003534  -0.000001
     2  C   -0.000012   0.003931  -0.117668  -0.000424
     3  H   -0.000005  -0.000172   0.003603   0.000705
     4  H   -0.000006  -0.000210   0.003786   0.000356
     5  C    0.002894  -0.016459   0.244317  -0.021083
     6  O    0.000349   0.008987  -0.103964   0.002414
     7  H    0.000000   0.000005   0.000000   0.000000
     8  H   -0.000005  -0.000095   0.000001   0.000000
     9  C   -0.000022   0.000167  -0.000007  -0.000002
    10  C    0.000300   0.003084  -0.000020   0.000001
    11  H    0.000002  -0.000104   0.000005   0.000000
    12  C   -0.000021   0.002175  -0.000043   0.000001
    13  C   -0.000712  -0.037266  -0.000187   0.000236
    14  H    0.002569  -0.003136   0.000051  -0.000001
    15  C    0.003176  -0.043334  -0.000647   0.000211
    16  C   -0.061071   0.331365  -0.068281   0.001848
    17  H   -0.000073   0.000626  -0.002986  -0.000046
    18  H   -0.022406   0.406417  -0.038943   0.002567
    19  H    0.519620   0.418377  -0.041402  -0.003852
    20  C    0.418377   4.915321   0.182659  -0.022752
    21  N   -0.041402   0.182659   7.386933   0.322818
    22  H   -0.003852  -0.022752   0.322818   0.331987
 Mulliken charges:
               1
     1  H    0.220404
     2  C   -0.576389
     3  H    0.180147
     4  H    0.186091
     5  C    0.745352
     6  O   -0.640975
     7  H    0.200379
     8  H    0.200296
     9  C   -0.204265
    10  C   -0.197185
    11  H    0.204374
    12  C   -0.198967
    13  C   -0.231609
    14  H    0.194862
    15  C   -0.224967
    16  C    0.020150
    17  H    0.248536
    18  H    0.229532
    19  H    0.182300
    20  C   -0.149523
    21  N   -0.773561
    22  H    0.385018
 Sum of Mulliken charges =   0.00000
 Mulliken charges with hydrogens summed into heavy atoms:
               1
     2  C    0.010253
     5  C    0.745352
     6  O   -0.640975
     9  C   -0.003886
    10  C    0.003111
    12  C    0.005407
    13  C   -0.036747
    15  C    0.023569
    16  C    0.020150
    20  C    0.262310
    21  N   -0.388543
 DipInt: DoE/N= T F RetVal/Mat= T F Init=T NMatP=  1 IDeriv=0 Min/MaxMlt=  0  4
 Entering OneElI...
 OneElI was handed  2147391367 working-precision words.
 Multipole integrals L=0 to 4 MinM= 0 MaxM= 0.
 Requested accuracy = 0.1000D-12
 ShPair: Thresh= 1.00D-13 NBox=     0 BxSize= 0.00D+00 RnKept= 1.62D+01
         NSMCal=                 2211 NSMKep=                1974
 PrsmSu:  NPrtUS=   1 ThrOK=F IAlg=1 NPAlg=1 LenDen=           0.
 Prism:   IPart=     0 DynPar=F LinDyn=F Incr=          19.
 PRISM was handed  2147215731 working-precision words and  1974 shell-pairs
 IPart=  0 NShTot=        1974 NBatch=          45 AvBLen=        43.9
 PrSmSu:  NxtVal=             20.
 Electronic moments (au):
        -80.00000000          0.17512470         -1.05994529          1.16574603
      -1663.71215951       -346.67735814       -168.48100497          4.12463452
         -5.10099747          1.11704031        343.33490994        -14.25916032
        -27.26609268       -449.42840519       -693.02062308      -1008.61795515
        407.74682271        -32.23987110         64.81512069        -31.05800148
     -60677.34881218      -3662.68248289      -1190.42892574       1742.10897263
       1824.79775970       -644.64793332        -71.76375385        413.35841178
        -71.30265250      -5871.37036795      -4394.16409952       -616.63916927
         72.13772599       -258.40603398        347.00386303
 Electronic spatial extent (au):  <R**2>=           2178.8705
 DipInt: DoE/N= F T RetVal/Mat= T F Init=T NMatP=  1 IDeriv=0 Min/MaxMlt=  0  4
 Nuclear    moments (au):
         80.00000000          0.00000000          0.00000000          0.00000000
       1617.85451955        302.17754522        117.15147595          0.00000000
          0.00000000          0.00000000       -351.61009708          9.64933862
         26.68322237        454.15496210        681.01748870       1053.76288477
       -421.26013050         24.49570505        -59.39994233         24.52789848
      55104.16795473       2537.28342236        609.38359153      -1688.69082592
      -1862.84001085        669.29839912         53.39837400       -429.71215546
         71.16418387       4732.69879272       3213.29036238        306.25225637
        -41.50949797        242.36379528       -329.36868301
 Total      moments (au):
          0.00000000          0.17512470         -1.05994529          1.16574603
        -45.85763996        -44.49981292        -51.32952902          4.12463452
         -5.10099747          1.11704031         -8.27518714         -4.60982171
         -0.58287031          4.72655691        -12.00313438         45.14492963
        -13.51330779         -7.74416605          5.41517835         -6.53010300
      -5573.18085746      -1125.39906053       -581.04533421         53.41814671
        -38.04225116         24.65046580        -18.36537985        -16.35374368
         -0.13846863      -1138.67157524      -1180.87373714       -310.38691290
         30.62822801        -16.04223870         17.63518002
 Traceless Quadrup. (au):
          1.37135400          2.72918105         -4.10053505          4.12463452
         -5.10099747          1.11704031
 Charge=              0.0000 electrons
 Dipole moment (field-independent basis, Debye):
    X=              0.4451    Y=             -2.6941    Z=              2.9630  Tot=              4.0294
 Quadrupole moment (field-independent basis, Debye-Ang):
   XX=            -61.6801   YY=            -59.8538   ZZ=            -69.0400
   XY=              5.5478   XZ=             -6.8610   YZ=              1.5025
 Traceless Quadrupole moment (field-independent basis, Debye-Ang):
   XX=              1.8445   YY=              3.6708   ZZ=             -5.5154
   XY=              5.5478   XZ=             -6.8610   YZ=              1.5025
 Octapole moment (field-independent basis, Debye-Ang**2):
  XXX=             -5.8900  YYY=             -3.2811  ZZZ=             -0.4149  XYY=              3.3642
  XXY=             -8.5434  XXZ=             32.1324  XZZ=             -9.6183  YZZ=             -5.5120
  YYZ=              3.8543  XYZ=             -4.6479
 Hexadecapole moment (field-independent basis, Debye-Ang**3):
 XXXX=          -2099.1270 YYYY=           -423.8792 ZZZZ=           -218.8495 XXXY=             20.1198
 XXXZ=            -14.3285 YYYX=              9.2845 YYYZ=             -6.9173 ZZZX=             -6.1596
 ZZZY=             -0.0522 XXYY=           -428.8783 XXZZ=           -444.7736 YYZZ=           -116.9066
 XXYZ=             11.5361 YYXZ=             -6.0423 ZZXY=              6.6423
 N-N= 5.675644514833D+02 E-N=-2.248242593039D+03  KE= 4.753337942842D+02
 Entering OneElI...
 OneElI was handed  2147408208 working-precision words.
 Calculate electrostatic properties
    NBasis =   187  MinDer = 0  MaxDer = 0
    NGrid  =    22  NMatD  =   1
 Requested accuracy = 0.1000D-12
 PrtBox:  NBox=     1 Levels=  1 BoxLen=   29.89 SMaxX=       15.85
          Shift=            7.980823            4.411631            3.264268
 Box      1 Number                   0 centers from      1 to     66:
 ShPair: Thresh= 1.00D-13 NBox=     1 BxSize= 2.99D+01 RnKept= 1.62D+01
         NSMCal=                 2211 NSMKep=                1838
 PrsmSu:  NPrtUS=   4 ThrOK=T IAlg=1 NPAlg=1 LenDen=           0.
 Prism:   IPart=     0 DynPar=F LinDyn=F Incr=         101.
 PRISM was handed   536766935 working-precision words and  1838 shell-pairs
 PRISM was handed   536766935 working-precision words and  1838 shell-pairs
 PRISM was handed   536766935 working-precision words and  1838 shell-pairs
 PRISM was handed   536766935 working-precision words and  1838 shell-pairs
 IPart=  3 NShTot=        9702 NBatch=         441 AvBLen=        22.0
 IPart=  1 NShTot=       10252 NBatch=         466 AvBLen=        22.0
 IPart=  2 NShTot=       10032 NBatch=         456 AvBLen=        22.0
 IPart=  0 NShTot=       10450 NBatch=         475 AvBLen=        22.0
 PrSmSu:  NxtVal=            405.
 --------------------------------------------------------
       Center         ----      EFG at Nuclei      ----
                      3XX-RR        3YY-RR        3ZZ-RR
 --------------------------------------------------------
     1   Atom       -0.013948     -0.112218      0.126167
     2   Atom       -0.023848      0.037988     -0.014139
     3   Atom        0.017767     -0.168837      0.151070
     4   Atom        0.049385      0.140829     -0.190214
     5   Atom       -0.061267     -0.095084      0.156351
     6   Atom        0.803810     -0.229708     -0.574102
     7   Atom       -0.195783      0.051029      0.144754
     8   Atom       -0.151463      0.012028      0.139435
     9   Atom        0.113141      0.176480     -0.289621
    10   Atom        0.114240      0.177877     -0.292116
    11   Atom        0.148197     -0.316309      0.168113
    12   Atom        0.157010      0.145172     -0.302182
    13   Atom        0.150388      0.118892     -0.269280
    14   Atom        0.149912     -0.323375      0.173463
    15   Atom        0.138530      0.162901     -0.301431
    16   Atom        0.101023      0.185524     -0.286547
    17   Atom       -0.137681      0.000796      0.136884
    18   Atom        0.119687      0.133168     -0.252855
    19   Atom        0.133396     -0.286778      0.153382
    20   Atom       -0.130361      0.090310      0.040051
    21   Atom       -0.010409      0.083434     -0.073025
    22   Atom        0.165772     -0.002884     -0.162888
 --------------------------------------------------------
                        XY            XZ            YZ
 --------------------------------------------------------
     1   Atom        0.209113     -0.060169      0.079173
     2   Atom       -0.002799      0.057089     -0.034694
     3   Atom       -0.205089      0.029373      0.034691
     4   Atom       -0.036697     -0.181410     -0.076004
     5   Atom       -0.269098     -0.279425     -0.271581
     6   Atom       -0.916965     -0.720301      0.578400
     7   Atom       -0.183175     -0.097049     -0.047271
     8   Atom        0.204258     -0.103319      0.066514
     9   Atom       -0.017001      0.126809     -0.024503
    10   Atom        0.026376      0.131018     -0.012469
    11   Atom       -0.027805     -0.005230      0.007740
    12   Atom        0.004501      0.143026     -0.016427
    13   Atom        0.007050      0.129527     -0.011989
    14   Atom       -0.025669     -0.006738      0.008369
    15   Atom        0.003661      0.141798     -0.010068
    16   Atom       -0.028705      0.115210     -0.025598
    17   Atom        0.201105     -0.093017      0.064077
    18   Atom        0.018880     -0.082560      0.087090
    19   Atom        0.061084      0.005795      0.023553
    20   Atom        0.054815      0.203660     -0.104043
    21   Atom        0.528590      0.499286      0.503543
    22   Atom       -0.009230      0.080979      0.271552
 --------------------------------------------------------


 ---------------------------------------------------------------------------------
              Nuclear Quadrupole Coupling Constant in Principal Axis System
 ---------------------------------------------------------------------------------

       Atom             a.u.   MegaHertz   Gauss  10(-4) cm-1        Axes

              Baa    -0.5423     2.604     0.929     0.869 -0.6537 -0.0551  0.7547
    21 N(14)  Bbb    -0.4825     2.317     0.827     0.773 -0.4924  0.7883 -0.3690
              Bcc     1.0247    -4.921    -1.756    -1.642  0.5746  0.6128  0.5425
 

 ---------------------------------------------------------------------------------

 No NMR shielding tensors so no spin-rotation constants.
 Leave Link  601 at Wed Nov 29 20:25:41 2017, MaxMem=  2147483648 cpu:         0.4
 FitSet:  NAtFit=    22 NAtPot=    22 NAtFrz=     0 MDM=    26 TotChg=   0.00000
 Merz-Kollman atomic radii used.
 Atom Element Radius
    1     1    1.20
    2     6    1.50
    3     1    1.20
    4     1    1.20
    5     6    1.50
    6     8    1.40
    7     1    1.20
    8     1    1.20
    9     6    1.50
   10     6    1.50
   11     1    1.20
   12     6    1.50
   13     6    1.50
   14     1    1.20
   15     6    1.50
   16     6    1.50
   17     1    1.20
   18     1    1.20
   19     1    1.20
   20     6    1.50
   21     7    1.50
   22     1    1.20
 Generate VDW surfaces: Layer= 4 Dens= 6 Start= 1.400 Inc= 0.200

 **********************************************************************

            Electrostatic Properties Using The SCF Density

 **********************************************************************

       Atomic Center    1 is at  -4.223270  1.173245  0.830144
       Atomic Center    2 is at  -3.566232  0.339762  1.079100
       Atomic Center    3 is at  -4.155567 -0.571537  1.179123
       Atomic Center    4 is at  -3.056344  0.547620  2.020042
       Atomic Center    5 is at  -2.504595  0.122214 -0.020101
       Atomic Center    6 is at  -2.488803  0.852607 -1.013061
       Atomic Center    7 is at   4.163456  1.279783  0.605132
       Atomic Center    8 is at   4.011141 -1.200395  0.672175
       Atomic Center    9 is at   3.232914  0.785816  0.360666
       Atomic Center   10 is at   3.145422 -0.618628  0.394571
       Atomic Center   11 is at   2.169345  2.628834 -0.010340
       Atomic Center   12 is at   2.105558  1.549458  0.005721
       Atomic Center   13 is at   1.934469 -1.257737  0.061869
       Atomic Center   14 is at   1.881582 -2.334535  0.078686
       Atomic Center   15 is at   0.893209  0.912435 -0.319254
       Atomic Center   16 is at   0.800956 -0.495705 -0.298025
       Atomic Center   17 is at   0.034417  1.509896 -0.587548
       Atomic Center   18 is at  -0.721156 -0.954518 -1.727376
       Atomic Center   19 is at  -0.346910 -2.268870 -0.632893
       Atomic Center   20 is at  -0.494816 -1.190636 -0.685860
       Atomic Center   21 is at  -1.624020 -0.864368  0.173900
       Atomic Center   22 is at  -1.759453 -1.461675  0.987922
      ESP Fit Center   23 is at  -4.223270  2.013245  2.285066
      ESP Fit Center   24 is at  -4.643270  1.900706  2.285066
      ESP Fit Center   25 is at  -4.950731  1.593245  2.285066
      ESP Fit Center   26 is at  -3.693760  2.236644  2.018083
      ESP Fit Center   27 is at  -4.113660  2.356117  2.018083
      ESP Fit Center   28 is at  -4.548365  2.315835  2.018083
      ESP Fit Center   29 is at  -4.939163  2.121241  2.018083
      ESP Fit Center   30 is at  -5.233276  1.798614  2.018083
      ESP Fit Center   31 is at  -5.390982  1.391528  2.018083
      ESP Fit Center   32 is at  -5.390982  0.954961  2.018083
      ESP Fit Center   33 is at  -3.691727  2.527594  1.670144
      ESP Fit Center   34 is at  -4.114543  2.624099  1.670144
      ESP Fit Center   35 is at  -4.547020  2.591689  1.670144
      ESP Fit Center   36 is at  -4.950731  2.433245  1.670144
      ESP Fit Center   37 is at  -5.289803  2.162843  1.670144
      ESP Fit Center   38 is at  -5.534110  1.804512  1.670144
      ESP Fit Center   39 is at  -5.661942  1.390090  1.670144
      ESP Fit Center   40 is at  -5.661942  0.956400  1.670144
      ESP Fit Center   41 is at  -3.411892  2.578592  1.264960
      ESP Fit Center   42 is at  -3.803270  2.740706  1.264960
      ESP Fit Center   43 is at  -4.223270  2.796000  1.264960
      ESP Fit Center   44 is at  -4.643270  2.740706  1.264960
      ESP Fit Center   45 is at  -5.034647  2.578592  1.264960
      ESP Fit Center   46 is at  -5.370731  2.320706  1.264960
      ESP Fit Center   47 is at  -5.628617  1.984622  1.264960
      ESP Fit Center   48 is at  -5.790731  1.593245  1.264960
      ESP Fit Center   49 is at  -5.846025  1.173245  1.264960
      ESP Fit Center   50 is at  -5.790731  0.753245  1.264960
      ESP Fit Center   51 is at  -3.323081  2.591716  0.830144
      ESP Fit Center   52 is at  -3.704121  2.771020  0.830144
      ESP Fit Center   53 is at  -4.117782  2.849930  0.830144
      ESP Fit Center   54 is at  -4.538070  2.823487  0.830144
      ESP Fit Center   55 is at  -4.938579  2.693354  0.830144
      ESP Fit Center   56 is at  -5.294142  2.467707  0.830144
      ESP Fit Center   57 is at  -5.582418  2.160724  0.830144
      ESP Fit Center   58 is at  -5.785294  1.791694  0.830144
      ESP Fit Center   59 is at  -5.890022  1.383804  0.830144
      ESP Fit Center   60 is at  -5.890022  0.962685  0.830144
      ESP Fit Center   61 is at  -5.785294  0.554795  0.830144
      ESP Fit Center   62 is at  -3.075808  2.320706  0.395328
      ESP Fit Center   63 is at  -3.411892  2.578592  0.395328
      ESP Fit Center   64 is at  -3.803270  2.740706  0.395328
      ESP Fit Center   65 is at  -4.223270  2.796000  0.395328
      ESP Fit Center   66 is at  -4.643270  2.740706  0.395328
      ESP Fit Center   67 is at  -5.034647  2.578592  0.395328
      ESP Fit Center   68 is at  -5.370731  2.320706  0.395328
      ESP Fit Center   69 is at  -5.628617  1.984622  0.395328
      ESP Fit Center   70 is at  -5.790731  1.593245  0.395328
      ESP Fit Center   71 is at  -5.846025  1.173245  0.395328
      ESP Fit Center   72 is at  -5.790731  0.753245  0.395328
      ESP Fit Center   73 is at  -5.628617  0.361867  0.395328
      ESP Fit Center   74 is at  -3.691727  2.527594 -0.009856
      ESP Fit Center   75 is at  -4.114543  2.624099 -0.009856
      ESP Fit Center   76 is at  -4.547020  2.591689 -0.009856
      ESP Fit Center   77 is at  -4.950731  2.433245 -0.009856
      ESP Fit Center   78 is at  -5.289803  2.162843 -0.009856
      ESP Fit Center   79 is at  -5.534110  1.804512 -0.009856
      ESP Fit Center   80 is at  -5.661942  1.390090 -0.009856
      ESP Fit Center   81 is at  -5.661942  0.956400 -0.009856
      ESP Fit Center   82 is at  -5.534110  0.541977 -0.009856
      ESP Fit Center   83 is at  -4.113660  2.356117 -0.357796
      ESP Fit Center   84 is at  -4.548365  2.315835 -0.357796
      ESP Fit Center   85 is at  -4.939163  2.121241 -0.357796
      ESP Fit Center   86 is at  -5.233276  1.798614 -0.357796
      ESP Fit Center   87 is at  -5.390982  1.391528 -0.357796
      ESP Fit Center   88 is at  -5.390982  0.954961 -0.357796
      ESP Fit Center   89 is at  -5.233276  0.547875 -0.357796
      ESP Fit Center   90 is at  -4.223270  2.013245 -0.624779
      ESP Fit Center   91 is at  -4.643270  1.900706 -0.624779
      ESP Fit Center   92 is at  -4.950731  1.593245 -0.624779
      ESP Fit Center   93 is at  -5.063270  1.173245 -0.624779
      ESP Fit Center   94 is at  -4.950731  0.753245 -0.624779
      ESP Fit Center   95 is at  -4.440678  1.549806 -0.792612
      ESP Fit Center   96 is at  -4.658086  1.173245 -0.792612
      ESP Fit Center   97 is at  -4.440678  0.796683 -0.792612
      ESP Fit Center   98 is at  -4.262200 -0.062056  3.019247
      ESP Fit Center   99 is at  -4.558178  0.953949  2.825186
      ESP Fit Center  100 is at  -4.713064  0.554142  2.825186
      ESP Fit Center  101 is at  -4.713064  0.125382  2.825186
      ESP Fit Center  102 is at  -4.558178 -0.274425  2.825186
      ESP Fit Center  103 is at  -3.885514 -0.782398  2.825186
      ESP Fit Center  104 is at  -4.183091  1.690496  2.564024
      ESP Fit Center  105 is at  -4.538650  1.461993  2.564024
      ESP Fit Center  106 is at  -4.815429  1.142572  2.564024
      ESP Fit Center  107 is at  -4.991006  0.758113  2.564024
      ESP Fit Center  108 is at  -5.051156  0.339762  2.564024
      ESP Fit Center  109 is at  -4.991006 -0.078590  2.564024
      ESP Fit Center  110 is at  -3.354905 -1.130048  2.564024
      ESP Fit Center  111 is at  -3.776699  2.073117  2.245797
      ESP Fit Center  112 is at  -5.261580  0.757627  2.245797
      ESP Fit Center  113 is at  -5.312318  0.339762  2.245797
      ESP Fit Center  114 is at  -2.947061 -1.292857  2.245797
      ESP Fit Center  115 is at  -3.461194  2.277063  1.882735
      ESP Fit Center  116 is at  -5.495005  0.549528  1.882735
      ESP Fit Center  117 is at  -2.476751  2.087671  1.488789
      ESP Fit Center  118 is at  -2.850905  2.271202  1.488789
      ESP Fit Center  119 is at  -2.399534  2.085848  1.079100
      ESP Fit Center  120 is at  -2.762596  2.279909  1.079100
      ESP Fit Center  121 is at  -5.666232  0.339762  1.079100
      ESP Fit Center  122 is at  -2.850905  2.271202  0.669410
      ESP Fit Center  123 is at  -5.615313  0.131390  0.669410
      ESP Fit Center  124 is at  -5.495005  0.129995  0.275465
      ESP Fit Center  125 is at  -5.261580 -0.078104 -0.087598
      ESP Fit Center  126 is at  -5.051156  0.339762 -0.405825
      ESP Fit Center  127 is at  -4.991006 -0.078590 -0.405825
      ESP Fit Center  128 is at  -4.815429 -0.463049 -0.405825
      ESP Fit Center  129 is at  -4.713064  0.554142 -0.666986
      ESP Fit Center  130 is at  -4.713064  0.125382 -0.666986
      ESP Fit Center  131 is at  -4.558178 -0.274425 -0.666986
      ESP Fit Center  132 is at  -4.590383 -0.571537  2.801878
      ESP Fit Center  133 is at  -4.372975 -0.948099  2.801878
      ESP Fit Center  134 is at  -3.938159 -0.948099  2.801878
      ESP Fit Center  135 is at  -4.995567 -0.571537  2.634045
      ESP Fit Center  136 is at  -4.883028 -0.991537  2.634045
      ESP Fit Center  137 is at  -4.575567 -1.298999  2.634045
      ESP Fit Center  138 is at  -4.155567 -1.411537  2.634045
      ESP Fit Center  139 is at  -3.735567 -1.298999  2.634045
      ESP Fit Center  140 is at  -5.323279 -0.353254  2.367062
      ESP Fit Center  141 is at  -5.323279 -0.789821  2.367062
      ESP Fit Center  142 is at  -5.165573 -1.196907  2.367062
      ESP Fit Center  143 is at  -4.871460 -1.519533  2.367062
      ESP Fit Center  144 is at  -4.480662 -1.714128  2.367062
      ESP Fit Center  145 is at  -4.045957 -1.754409  2.367062
      ESP Fit Center  146 is at  -3.626056 -1.634937  2.367062
      ESP Fit Center  147 is at  -3.277669 -1.371847  2.367062
      ESP Fit Center  148 is at  -5.466407  0.059730  2.019123
      ESP Fit Center  149 is at  -5.594239 -0.354692  2.019123
      ESP Fit Center  150 is at  -5.594239 -0.788382  2.019123
      ESP Fit Center  151 is at  -5.466407 -1.202805  2.019123
      ESP Fit Center  152 is at  -5.222100 -1.561136  2.019123
      ESP Fit Center  153 is at  -4.883028 -1.831537  2.019123
      ESP Fit Center  154 is at  -4.479317 -1.989982  2.019123
      ESP Fit Center  155 is at  -4.046840 -2.022392  2.019123
      ESP Fit Center  156 is at  -3.624024 -1.925887  2.019123
      ESP Fit Center  157 is at  -3.248437 -1.709042  2.019123
      ESP Fit Center  158 is at  -5.723028 -0.151537  1.613939
      ESP Fit Center  159 is at  -5.778322 -0.571537  1.613939
      ESP Fit Center  160 is at  -5.723028 -0.991537  1.613939
      ESP Fit Center  161 is at  -5.560914 -1.382915  1.613939
      ESP Fit Center  162 is at  -5.303028 -1.718999  1.613939
      ESP Fit Center  163 is at  -4.966944 -1.976885  1.613939
      ESP Fit Center  164 is at  -4.575567 -2.138999  1.613939
      ESP Fit Center  165 is at  -4.155567 -2.194293  1.613939
      ESP Fit Center  166 is at  -3.735567 -2.138999  1.613939
      ESP Fit Center  167 is at  -3.344189 -1.976885  1.613939
      ESP Fit Center  168 is at  -5.717591  0.046912  1.179123
      ESP Fit Center  169 is at  -5.822319 -0.360977  1.179123
      ESP Fit Center  170 is at  -5.822319 -0.782097  1.179123
      ESP Fit Center  171 is at  -5.717591 -1.189986  1.179123
      ESP Fit Center  172 is at  -5.514715 -1.559016  1.179123
      ESP Fit Center  173 is at  -5.226439 -1.865999  1.179123
      ESP Fit Center  174 is at  -4.870876 -2.091647  1.179123
      ESP Fit Center  175 is at  -4.470367 -2.221780  1.179123
      ESP Fit Center  176 is at  -4.050079 -2.248222  1.179123
      ESP Fit Center  177 is at  -3.636418 -2.169312  1.179123
      ESP Fit Center  178 is at  -5.723028 -0.151537  0.744307
      ESP Fit Center  179 is at  -5.778322 -0.571537  0.744307
      ESP Fit Center  180 is at  -5.723028 -0.991537  0.744307
      ESP Fit Center  181 is at  -5.560914 -1.382915  0.744307
      ESP Fit Center  182 is at  -5.303028 -1.718999  0.744307
      ESP Fit Center  183 is at  -4.966944 -1.976885  0.744307
      ESP Fit Center  184 is at  -4.575567 -2.138999  0.744307
      ESP Fit Center  185 is at  -4.155567 -2.194293  0.744307
      ESP Fit Center  186 is at  -3.735567 -2.138999  0.744307
      ESP Fit Center  187 is at  -3.344189 -1.976885  0.744307
      ESP Fit Center  188 is at  -5.594239 -0.354692  0.339123
      ESP Fit Center  189 is at  -5.594239 -0.788382  0.339123
      ESP Fit Center  190 is at  -5.466407 -1.202805  0.339123
      ESP Fit Center  191 is at  -5.222100 -1.561136  0.339123
      ESP Fit Center  192 is at  -4.883028 -1.831537  0.339123
      ESP Fit Center  193 is at  -4.479317 -1.989982  0.339123
      ESP Fit Center  194 is at  -4.046840 -2.022392  0.339123
      ESP Fit Center  195 is at  -3.624024 -1.925887  0.339123
      ESP Fit Center  196 is at  -5.323279 -0.353254 -0.008817
      ESP Fit Center  197 is at  -5.323279 -0.789821 -0.008817
      ESP Fit Center  198 is at  -5.165573 -1.196907 -0.008817
      ESP Fit Center  199 is at  -4.871460 -1.519533 -0.008817
      ESP Fit Center  200 is at  -4.480662 -1.714128 -0.008817
      ESP Fit Center  201 is at  -4.045957 -1.754409 -0.008817
      ESP Fit Center  202 is at  -4.995567 -0.571537 -0.275800
      ESP Fit Center  203 is at  -4.883028 -0.991537 -0.275800
      ESP Fit Center  204 is at  -4.575567 -1.298999 -0.275800
      ESP Fit Center  205 is at  -4.155567 -1.411537 -0.275800
      ESP Fit Center  206 is at  -4.372975 -0.948099 -0.443633
      ESP Fit Center  207 is at  -3.056344  0.547620  3.700042
      ESP Fit Center  208 is at  -2.621528  0.547620  3.642797
      ESP Fit Center  209 is at  -2.838936  0.924182  3.642797
      ESP Fit Center  210 is at  -3.273752  0.924182  3.642797
      ESP Fit Center  211 is at  -3.491160  0.547620  3.642797
      ESP Fit Center  212 is at  -3.273752  0.171059  3.642797
      ESP Fit Center  213 is at  -2.838936  0.171059  3.642797
      ESP Fit Center  214 is at  -2.216344  0.547620  3.474965
      ESP Fit Center  215 is at  -2.328883  0.967620  3.474965
      ESP Fit Center  216 is at  -2.636344  1.275082  3.474965
      ESP Fit Center  217 is at  -3.056344  1.387620  3.474965
      ESP Fit Center  218 is at  -3.476344  1.275082  3.474965
      ESP Fit Center  219 is at  -3.783806  0.967620  3.474965
      ESP Fit Center  220 is at  -3.896344  0.547620  3.474965
      ESP Fit Center  221 is at  -3.783806  0.127620  3.474965
      ESP Fit Center  222 is at  -3.476344 -0.179841  3.474965
      ESP Fit Center  223 is at  -3.056344 -0.292380  3.474965
      ESP Fit Center  224 is at  -2.636344 -0.179841  3.474965
      ESP Fit Center  225 is at  -2.328883  0.127620  3.474965
      ESP Fit Center  226 is at  -1.868405  0.547620  3.207981
      ESP Fit Center  227 is at  -1.948624  0.976754  3.207981
      ESP Fit Center  228 is at  -2.178446  1.347930  3.207981
      ESP Fit Center  229 is at  -2.526834  1.611020  3.207981
      ESP Fit Center  230 is at  -2.946735  1.730492  3.207981
      ESP Fit Center  231 is at  -3.381439  1.690211  3.207981
      ESP Fit Center  232 is at  -3.772238  1.495616  3.207981
      ESP Fit Center  233 is at  -4.066351  1.172990  3.207981
      ESP Fit Center  234 is at  -4.224057  0.765904  3.207981
      ESP Fit Center  235 is at  -4.224057  0.329337  3.207981
      ESP Fit Center  236 is at  -4.066351 -0.077749  3.207981
      ESP Fit Center  237 is at  -3.772238 -0.400376  3.207981
      ESP Fit Center  238 is at  -3.381439 -0.594970  3.207981
      ESP Fit Center  239 is at  -2.946735 -0.635252  3.207981
      ESP Fit Center  240 is at  -2.526834 -0.515779  3.207981
      ESP Fit Center  241 is at  -2.178446 -0.252689  3.207981
      ESP Fit Center  242 is at  -1.948624  0.118487  3.207981
      ESP Fit Center  243 is at  -1.601421  0.547620  2.860042
      ESP Fit Center  244 is at  -1.666060  0.976466  2.860042
      ESP Fit Center  245 is at  -1.854231  1.367207  2.860042
      ESP Fit Center  246 is at  -2.149215  1.685125  2.860042
      ESP Fit Center  247 is at  -2.524801  1.901970  2.860042
      ESP Fit Center  248 is at  -2.947618  1.998475  2.860042
      ESP Fit Center  249 is at  -3.380095  1.966065  2.860042
      ESP Fit Center  250 is at  -3.783806  1.807620  2.860042
      ESP Fit Center  251 is at  -4.122878  1.537219  2.860042
      ESP Fit Center  252 is at  -4.367184  1.178888  2.860042
      ESP Fit Center  253 is at  -3.380095 -0.870824  2.860042
      ESP Fit Center  254 is at  -2.947618 -0.903234  2.860042
      ESP Fit Center  255 is at  -2.524801 -0.806729  2.860042
      ESP Fit Center  256 is at  -2.149215 -0.589884  2.860042
      ESP Fit Center  257 is at  -1.854231 -0.271967  2.860042
      ESP Fit Center  258 is at  -1.666060  0.118774  2.860042
      ESP Fit Center  259 is at  -1.433589  0.547620  2.454858
      ESP Fit Center  260 is at  -1.488883  0.967620  2.454858
      ESP Fit Center  261 is at  -1.650997  1.358998  2.454858
      ESP Fit Center  262 is at  -1.908883  1.695082  2.454858
      ESP Fit Center  263 is at  -2.244966  1.952968  2.454858
      ESP Fit Center  264 is at  -2.636344  2.115082  2.454858
      ESP Fit Center  265 is at  -3.056344  2.170376  2.454858
      ESP Fit Center  266 is at  -3.476344  2.115082  2.454858
      ESP Fit Center  267 is at  -3.867722  1.952968  2.454858
      ESP Fit Center  268 is at  -2.636344 -1.019841  2.454858
      ESP Fit Center  269 is at  -1.908883 -0.599841  2.454858
      ESP Fit Center  270 is at  -1.650997 -0.263757  2.454858
      ESP Fit Center  271 is at  -1.488883  0.127620  2.454858
      ESP Fit Center  272 is at  -1.376344  0.547620  2.020042
      ESP Fit Center  273 is at  -1.429124  0.965419  2.020042
      ESP Fit Center  274 is at  -1.584149  1.356967  2.020042
      ESP Fit Center  275 is at  -1.831677  1.697659  2.020042
      ESP Fit Center  276 is at  -2.156155  1.966091  2.020042
      ESP Fit Center  277 is at  -2.537196  2.145395  2.020042
      ESP Fit Center  278 is at  -2.950856  2.224305  2.020042
      ESP Fit Center  279 is at  -1.429124  0.129821  2.020042
      ESP Fit Center  280 is at  -1.650997  1.358998  1.585226
      ESP Fit Center  281 is at  -1.908883  1.695082  1.585226
      ESP Fit Center  282 is at  -2.244966  1.952968  1.585226
      ESP Fit Center  283 is at  -1.255397  0.925024  1.464824
      ESP Fit Center  284 is at  -1.532176  1.244445  1.464824
      ESP Fit Center  285 is at  -0.958512  0.933660  1.146597
      ESP Fit Center  286 is at  -1.197630  1.280083  1.146597
      ESP Fit Center  287 is at  -1.512705  1.559214  1.146597
      ESP Fit Center  288 is at  -1.885424  1.754833  1.146597
      ESP Fit Center  289 is at  -0.960057  1.296341  0.783535
      ESP Fit Center  290 is at  -1.248570  1.600920  0.783535
      ESP Fit Center  291 is at  -1.595813  1.836357  0.783535
      ESP Fit Center  292 is at  -1.985550  1.991642  0.783535
      ESP Fit Center  293 is at  -1.415114  1.870123  0.389589
      ESP Fit Center  294 is at  -1.789268  2.053654  0.389589
      ESP Fit Center  295 is at  -4.067370 -1.219385 -0.429790
      ESP Fit Center  296 is at  -3.765318 -1.506507 -0.429790
      ESP Fit Center  297 is at  -4.433368 -0.087553 -0.823736
      ESP Fit Center  298 is at  -4.343181 -0.497278 -0.823736
      ESP Fit Center  299 is at  -4.167023 -0.878037 -0.823736
      ESP Fit Center  300 is at  -3.913133 -1.212024 -0.823736
      ESP Fit Center  301 is at  -3.593380 -1.483625 -0.823736
      ESP Fit Center  302 is at  -4.199943 -0.295652 -1.186798
      ESP Fit Center  303 is at  -4.050677 -0.689233 -1.186798
      ESP Fit Center  304 is at  -3.811559 -1.035656 -1.186798
      ESP Fit Center  305 is at  -3.496485 -1.314787 -1.186798
      ESP Fit Center  306 is at  -3.123765 -1.510405 -1.186798
      ESP Fit Center  307 is at  -3.753792 -0.680597 -1.505025
      ESP Fit Center  308 is at  -3.477013 -1.000017 -1.505025
      ESP Fit Center  309 is at  -3.121454 -1.228521 -1.505025
      ESP Fit Center  310 is at  -3.207687 -0.808831 -1.766187
      ESP Fit Center  311 is at  -2.823876 -0.999946 -1.766187
      ESP Fit Center  312 is at  -1.883724  2.177544  0.298435
      ESP Fit Center  313 is at  -2.281512  2.294345  0.298435
      ESP Fit Center  314 is at  -2.696093  2.294345  0.298435
      ESP Fit Center  315 is at  -1.579285  2.285777 -0.033061
      ESP Fit Center  316 is at  -1.964274  2.466939 -0.033061
      ESP Fit Center  317 is at  -2.382222  2.546667 -0.033061
      ESP Fit Center  318 is at  -2.806866  2.519951 -0.033061
      ESP Fit Center  319 is at  -3.211525  2.388469 -0.033061
      ESP Fit Center  320 is at  -1.680013  2.532077 -0.407388
      ESP Fit Center  321 is at  -2.074008  2.669941 -0.407388
      ESP Fit Center  322 is at  -2.488803  2.716678 -0.407388
      ESP Fit Center  323 is at  -2.903598  2.669941 -0.407388
      ESP Fit Center  324 is at  -3.297593  2.532077 -0.407388
      ESP Fit Center  325 is at  -3.651032  2.309996 -0.407388
      ESP Fit Center  326 is at  -1.575752  2.574804 -0.808185
      ESP Fit Center  327 is at  -1.967320  2.730819 -0.808185
      ESP Fit Center  328 is at  -2.383272  2.799011 -0.808185
      ESP Fit Center  329 is at  -2.804158  2.776191 -0.808185
      ESP Fit Center  330 is at  -3.210299  2.663427 -0.808185
      ESP Fit Center  331 is at  -3.582704  2.465990 -0.808185
      ESP Fit Center  332 is at  -3.903959  2.193114 -0.808185
      ESP Fit Center  333 is at  -4.159043  1.857557 -0.808185
      ESP Fit Center  334 is at  -1.575752  2.574804 -1.217937
      ESP Fit Center  335 is at  -1.967320  2.730819 -1.217937
      ESP Fit Center  336 is at  -2.383272  2.799011 -1.217937
      ESP Fit Center  337 is at  -2.804158  2.776191 -1.217937
      ESP Fit Center  338 is at  -3.210299  2.663427 -1.217937
      ESP Fit Center  339 is at  -3.582704  2.465990 -1.217937
      ESP Fit Center  340 is at  -3.903959  2.193114 -1.217937
      ESP Fit Center  341 is at  -4.159043  1.857557 -1.217937
      ESP Fit Center  342 is at  -4.336028  1.475009 -1.217937
      ESP Fit Center  343 is at  -4.426639  1.063359 -1.217937
      ESP Fit Center  344 is at  -4.426639  0.641854 -1.217937
      ESP Fit Center  345 is at  -4.336028  0.230204 -1.217937
      ESP Fit Center  346 is at  -1.326574  2.309996 -1.618734
      ESP Fit Center  347 is at  -1.680013  2.532077 -1.618734
      ESP Fit Center  348 is at  -2.074008  2.669941 -1.618734
      ESP Fit Center  349 is at  -2.488803  2.716678 -1.618734
      ESP Fit Center  350 is at  -2.903598  2.669941 -1.618734
      ESP Fit Center  351 is at  -3.297593  2.532077 -1.618734
      ESP Fit Center  352 is at  -3.651032  2.309996 -1.618734
      ESP Fit Center  353 is at  -3.946192  2.014836 -1.618734
      ESP Fit Center  354 is at  -4.168273  1.661397 -1.618734
      ESP Fit Center  355 is at  -4.306137  1.267402 -1.618734
      ESP Fit Center  356 is at  -4.352874  0.852607 -1.618734
      ESP Fit Center  357 is at  -4.306137  0.437812 -1.618734
      ESP Fit Center  358 is at  -4.168273  0.043817 -1.618734
      ESP Fit Center  359 is at  -3.946192 -0.309622 -1.618734
      ESP Fit Center  360 is at  -0.791393  0.852607 -1.993061
      ESP Fit Center  361 is at  -1.001351  1.670340 -1.993061
      ESP Fit Center  362 is at  -1.251444  2.014564 -1.993061
      ESP Fit Center  363 is at  -1.579285  2.285777 -1.993061
      ESP Fit Center  364 is at  -1.964274  2.466939 -1.993061
      ESP Fit Center  365 is at  -2.382222  2.546667 -1.993061
      ESP Fit Center  366 is at  -2.806866  2.519951 -1.993061
      ESP Fit Center  367 is at  -3.211525  2.388469 -1.993061
      ESP Fit Center  368 is at  -3.570773  2.160484 -1.993061
      ESP Fit Center  369 is at  -3.862036  1.850319 -1.993061
      ESP Fit Center  370 is at  -4.067015  1.477465 -1.993061
      ESP Fit Center  371 is at  -4.172828  1.065349 -1.993061
      ESP Fit Center  372 is at  -4.172828  0.639865 -1.993061
      ESP Fit Center  373 is at  -4.067015  0.227749 -1.993061
      ESP Fit Center  374 is at  -3.862036 -0.145106 -1.993061
      ESP Fit Center  375 is at  -3.570773 -0.455270 -1.993061
      ESP Fit Center  376 is at  -3.211525 -0.683255 -1.993061
      ESP Fit Center  377 is at  -2.806866 -0.814737 -1.993061
      ESP Fit Center  378 is at  -2.382222 -0.841454 -1.993061
      ESP Fit Center  379 is at  -1.032239  0.852607 -2.324557
      ESP Fit Center  380 is at  -1.091240  1.262968 -2.324557
      ESP Fit Center  381 is at  -1.263463  1.640085 -2.324557
      ESP Fit Center  382 is at  -1.534956  1.953404 -2.324557
      ESP Fit Center  383 is at  -1.883724  2.177544 -2.324557
      ESP Fit Center  384 is at  -2.281512  2.294345 -2.324557
      ESP Fit Center  385 is at  -2.696093  2.294345 -2.324557
      ESP Fit Center  386 is at  -3.093881  2.177544 -2.324557
      ESP Fit Center  387 is at  -3.442649  1.953404 -2.324557
      ESP Fit Center  388 is at  -3.714142  1.640085 -2.324557
      ESP Fit Center  389 is at  -3.886366  1.262968 -2.324557
      ESP Fit Center  390 is at  -3.945367  0.852607 -2.324557
      ESP Fit Center  391 is at  -3.886366  0.442245 -2.324557
      ESP Fit Center  392 is at  -3.714142  0.065129 -2.324557
      ESP Fit Center  393 is at  -3.442649 -0.248191 -2.324557
      ESP Fit Center  394 is at  -3.093881 -0.472330 -2.324557
      ESP Fit Center  395 is at  -2.696093 -0.589131 -2.324557
      ESP Fit Center  396 is at  -2.281512 -0.589131 -2.324557
      ESP Fit Center  397 is at  -1.336744  0.852607 -2.598734
      ESP Fit Center  398 is at  -1.414540  1.268779 -2.598734
      ESP Fit Center  399 is at  -1.637421  1.628744 -2.598734
      ESP Fit Center  400 is at  -1.975286  1.883888 -2.598734
      ESP Fit Center  401 is at  -2.382504  1.999751 -2.598734
      ESP Fit Center  402 is at  -2.804079  1.960687 -2.598734
      ESP Fit Center  403 is at  -3.183074  1.771970 -2.598734
      ESP Fit Center  404 is at  -3.468303  1.459088 -2.598734
      ESP Fit Center  405 is at  -3.621246  1.064297 -2.598734
      ESP Fit Center  406 is at  -3.621246  0.640917 -2.598734
      ESP Fit Center  407 is at  -3.468303  0.246126 -2.598734
      ESP Fit Center  408 is at  -3.183074 -0.066756 -2.598734
      ESP Fit Center  409 is at  -2.804079 -0.255473 -2.598734
      ESP Fit Center  410 is at  -2.382504 -0.294538 -2.598734
      ESP Fit Center  411 is at  -1.975286 -0.178674 -2.598734
      ESP Fit Center  412 is at  -1.414540  0.436435 -2.598734
      ESP Fit Center  413 is at  -1.691599  0.852607 -2.803610
      ESP Fit Center  414 is at  -1.798404  1.251209 -2.803610
      ESP Fit Center  415 is at  -2.090201  1.543006 -2.803610
      ESP Fit Center  416 is at  -2.488803  1.649811 -2.803610
      ESP Fit Center  417 is at  -2.887405  1.543006 -2.803610
      ESP Fit Center  418 is at  -3.179202  1.251209 -2.803610
      ESP Fit Center  419 is at  -3.286007  0.852607 -2.803610
      ESP Fit Center  420 is at  -3.179202  0.454005 -2.803610
      ESP Fit Center  421 is at  -2.887405  0.162208 -2.803610
      ESP Fit Center  422 is at  -2.488803  0.055403 -2.803610
      ESP Fit Center  423 is at  -2.090201  0.162208 -2.803610
      ESP Fit Center  424 is at  -1.798404  0.454005 -2.803610
      ESP Fit Center  425 is at  -2.081296  0.852607 -2.930230
      ESP Fit Center  426 is at  -2.285049  1.205518 -2.930230
      ESP Fit Center  427 is at  -2.692556  1.205518 -2.930230
      ESP Fit Center  428 is at  -2.896310  0.852607 -2.930230
      ESP Fit Center  429 is at  -2.692556  0.499695 -2.930230
      ESP Fit Center  430 is at  -2.285049  0.499695 -2.930230
      ESP Fit Center  431 is at  -2.488803  0.852607 -2.973061
      ESP Fit Center  432 is at   4.163456  1.279783  2.285132
      ESP Fit Center  433 is at   4.598272  1.279783  2.227887
      ESP Fit Center  434 is at   4.380864  1.656344  2.227887
      ESP Fit Center  435 is at   3.946048  1.656344  2.227887
      ESP Fit Center  436 is at   4.380864  0.903221  2.227887
      ESP Fit Center  437 is at   5.003456  1.279783  2.060055
      ESP Fit Center  438 is at   4.890917  1.699783  2.060055
      ESP Fit Center  439 is at   4.583456  2.007244  2.060055
      ESP Fit Center  440 is at   4.163456  2.119783  2.060055
      ESP Fit Center  441 is at   3.743456  2.007244  2.060055
      ESP Fit Center  442 is at   4.583456  0.552321  2.060055
      ESP Fit Center  443 is at   4.890917  0.859783  2.060055
      ESP Fit Center  444 is at   5.351395  1.279783  1.793071
      ESP Fit Center  445 is at   5.271176  1.708916  1.793071
      ESP Fit Center  446 is at   5.041354  2.080092  1.793071
      ESP Fit Center  447 is at   4.692966  2.343182  1.793071
      ESP Fit Center  448 is at   4.273065  2.462655  1.793071
      ESP Fit Center  449 is at   3.838361  2.422373  1.793071
      ESP Fit Center  450 is at   4.692966  0.216383  1.793071
      ESP Fit Center  451 is at   5.041354  0.479473  1.793071
      ESP Fit Center  452 is at   5.271176  0.850649  1.793071
      ESP Fit Center  453 is at   5.618379  1.279783  1.445132
      ESP Fit Center  454 is at   5.553740  1.708629  1.445132
      ESP Fit Center  455 is at   5.365569  2.099370  1.445132
      ESP Fit Center  456 is at   5.070585  2.417287  1.445132
      ESP Fit Center  457 is at   4.694999  2.634132  1.445132
      ESP Fit Center  458 is at   4.272182  2.730637  1.445132
      ESP Fit Center  459 is at   3.839705  2.698227  1.445132
      ESP Fit Center  460 is at   5.070585  0.142278  1.445132
      ESP Fit Center  461 is at   5.365569  0.460196  1.445132
      ESP Fit Center  462 is at   5.553740  0.850937  1.445132
      ESP Fit Center  463 is at   5.786211  1.279783  1.039948
      ESP Fit Center  464 is at   5.730917  1.699783  1.039948
      ESP Fit Center  465 is at   5.568803  2.091160  1.039948
      ESP Fit Center  466 is at   5.310917  2.427244  1.039948
      ESP Fit Center  467 is at   4.974834  2.685130  1.039948
      ESP Fit Center  468 is at   4.583456  2.847244  1.039948
      ESP Fit Center  469 is at   4.163456  2.902538  1.039948
      ESP Fit Center  470 is at   3.743456  2.847244  1.039948
      ESP Fit Center  471 is at   5.310917  0.132321  1.039948
      ESP Fit Center  472 is at   5.568803  0.468405  1.039948
      ESP Fit Center  473 is at   5.730917  0.859783  1.039948
      ESP Fit Center  474 is at   5.843456  1.279783  0.605132
      ESP Fit Center  475 is at   5.790676  1.697582  0.605132
      ESP Fit Center  476 is at   5.635651  2.089129  0.605132
      ESP Fit Center  477 is at   5.388123  2.429822  0.605132
      ESP Fit Center  478 is at   5.063645  2.698254  0.605132
      ESP Fit Center  479 is at   4.682604  2.877558  0.605132
      ESP Fit Center  480 is at   4.268944  2.956468  0.605132
      ESP Fit Center  481 is at   3.848655  2.930025  0.605132
      ESP Fit Center  482 is at   5.388123  0.129744  0.605132
      ESP Fit Center  483 is at   5.635651  0.470436  0.605132
      ESP Fit Center  484 is at   5.790676  0.861984  0.605132
      ESP Fit Center  485 is at   5.786211  1.279783  0.170316
      ESP Fit Center  486 is at   5.730917  1.699783  0.170316
      ESP Fit Center  487 is at   5.568803  2.091160  0.170316
      ESP Fit Center  488 is at   5.310917  2.427244  0.170316
      ESP Fit Center  489 is at   4.974834  2.685130  0.170316
      ESP Fit Center  490 is at   4.583456  2.847244  0.170316
      ESP Fit Center  491 is at   4.163456  2.902538  0.170316
      ESP Fit Center  492 is at   5.310917  0.132321  0.170316
      ESP Fit Center  493 is at   5.568803  0.468405  0.170316
      ESP Fit Center  494 is at   5.730917  0.859783  0.170316
      ESP Fit Center  495 is at   5.618379  1.279783 -0.234868
      ESP Fit Center  496 is at   5.553740  1.708629 -0.234868
      ESP Fit Center  497 is at   5.365569  2.099370 -0.234868
      ESP Fit Center  498 is at   5.070585  2.417287 -0.234868
      ESP Fit Center  499 is at   4.694999  2.634132 -0.234868
      ESP Fit Center  500 is at   4.272182  2.730637 -0.234868
      ESP Fit Center  501 is at   5.365569  0.460196 -0.234868
      ESP Fit Center  502 is at   5.553740  0.850937 -0.234868
      ESP Fit Center  503 is at   5.351395  1.279783 -0.582807
      ESP Fit Center  504 is at   5.271176  1.708916 -0.582807
      ESP Fit Center  505 is at   5.041354  2.080092 -0.582807
      ESP Fit Center  506 is at   4.692966  2.343182 -0.582807
      ESP Fit Center  507 is at   4.273065  2.462655 -0.582807
      ESP Fit Center  508 is at   5.271176  0.850649 -0.582807
      ESP Fit Center  509 is at   5.003456  1.279783 -0.849791
      ESP Fit Center  510 is at   4.890917  1.699783 -0.849791
      ESP Fit Center  511 is at   4.583456  2.007244 -0.849791
      ESP Fit Center  512 is at   4.011141 -1.200395  2.352175
      ESP Fit Center  513 is at   4.445957 -1.200395  2.294930
      ESP Fit Center  514 is at   4.228549 -0.823833  2.294930
      ESP Fit Center  515 is at   3.793733 -1.576956  2.294930
      ESP Fit Center  516 is at   4.228549 -1.576956  2.294930
      ESP Fit Center  517 is at   4.851141 -1.200395  2.127098
      ESP Fit Center  518 is at   4.738603 -0.780395  2.127098
[...]
 5661 Fit      -0.002747
 5662 Fit      -0.001639
 5663 Fit      -0.001064
 5664 Fit      -0.000948
 5665 Fit      -0.001243
 5666 Fit      -0.001899
 5667 Fit      -0.002826
 5668 Fit      -0.003103
 5669 Fit      -0.002843
 5670 Fit      -0.003188
 5671 Fit      -0.004040
 5672 Fit      -0.008135
 5673 Fit      -0.009467
 5674 Fit      -0.006141
 5675 Fit      -0.006975
 5676 Fit      -0.008043
 5677 Fit      -0.009224
 5678 Fit      -0.010577
 5679 Fit      -0.004226
 5680 Fit      -0.004971
 5681 Fit      -0.005898
 5682 Fit      -0.006878
 5683 Fit      -0.007829
 5684 Fit      -0.008783
 5685 Fit      -0.009877
 5686 Fit      -0.011277
 5687 Fit      -0.001803
 5688 Fit      -0.002412
 5689 Fit      -0.003223
 5690 Fit      -0.004190
 5691 Fit      -0.005214
 5692 Fit      -0.006188
 5693 Fit      -0.007046
 5694 Fit      -0.007818
 5695 Fit      -0.008635
 5696 Fit      -0.011087
 5697 Fit       0.000217
 5698 Fit      -0.000422
 5699 Fit      -0.001196
 5700 Fit      -0.002126
 5701 Fit      -0.003166
 5702 Fit      -0.004227
 5703 Fit      -0.005212
 5704 Fit      -0.006045
 5705 Fit      -0.006702
 5706 Fit       0.002571
 5707 Fit       0.001936
 5708 Fit      -0.001697
 5709 Fit      -0.002899
 5710 Fit      -0.004039
 5711 Fit      -0.005023
 5712 Fit      -0.005773
 5713 Fit      -0.001494
 5714 Fit      -0.002810
 5715 Fit      -0.003996
 5716 Fit      -0.004967
 5717 Fit      -0.002022
 5718 Fit      -0.003393
 5719 Fit      -0.002853
 5720 Fit       0.000555
 5721 Fit      -0.002538
 5722 Fit      -0.001441
 5723 Fit      -0.004483
 5724 Fit      -0.003287
 5725 Fit      -0.002242
 5726 Fit      -0.007512
 5727 Fit      -0.006089
 5728 Fit      -0.004905
 5729 Fit      -0.003942
 5730 Fit      -0.004191
 5731 Fit      -0.010493
 5732 Fit      -0.008879
 5733 Fit      -0.007541
 5734 Fit      -0.006480
 5735 Fit      -0.005719
 5736 Fit      -0.005309
 5737 Fit      -0.005309
 5738 Fit      -0.005732
 5739 Fit      -0.006531
 5740 Fit      -0.013235
 5741 Fit      -0.011417
 5742 Fit      -0.009873
 5743 Fit      -0.008681
 5744 Fit      -0.007895
 5745 Fit      -0.007578
 5746 Fit      -0.007777
 5747 Fit      -0.008484
 5748 Fit      -0.018649
 5749 Fit      -0.017057
 5750 Fit      -0.015184
 5751 Fit      -0.013942
 5752 Fit      -0.012270
 5753 Fit      -0.010927
 5754 Fit      -0.010061
 5755 Fit      -0.009773
 5756 Fit      -0.010120
 5757 Fit      -0.017342
 5758 Fit      -0.015721
 5759 Fit      -0.014549
 5760 Fit      -0.012984
 5761 Fit      -0.012017
 5762 Fit      -0.011925
 5763 Fit      -0.016260
 5764 Fit      -0.015083
 5765 Fit      -0.013852
 5766 Fit      -0.002588
 5767 Fit      -0.001225
 5768 Fit      -0.003640
 5769 Fit      -0.000114
 5770 Fit       0.001714
 5771 Fit       0.001811
 5772 Fit       0.000967
 5773 Fit      -0.004893
 5774 Fit      -0.000400
 5775 Fit       0.003387
 5776 Fit       0.005363
 5777 Fit       0.005556
 5778 Fit       0.004832
 5779 Fit       0.003856
 5780 Fit       0.002835
 5781 Fit      -0.009329
 5782 Fit      -0.004557
 5783 Fit       0.000969
 5784 Fit       0.006306
 5785 Fit       0.009819
 5786 Fit       0.010675
 5787 Fit       0.009737
 5788 Fit       0.008271
 5789 Fit       0.006926
 5790 Fit       0.005824
 5791 Fit       0.004904
 5792 Fit       0.013451
 5793 Fit       0.011241
 5794 Fit       0.009595
 5795 Fit       0.008390
 5796 Fit       0.007470
 5797 Fit       0.006750
 5798 Fit       0.015775
 5799 Fit       0.013246
 5800 Fit       0.008281
 5801 Fit       0.006343
 5802 Fit       0.004506
 5803 Fit       0.003050
 5804 Fit       0.001380
 5805 Fit       0.001783
 5806 Fit      -0.000031
 5807 Fit      -0.001908
 5808 Fit       0.000987
 5809 Fit      -0.000911
 5810 Fit      -0.002883
 5811 Fit      -0.004990
 5812 Fit       0.003978
 5813 Fit       0.002177
 5814 Fit       0.000343
 5815 Fit      -0.001558
 5816 Fit      -0.003546
 5817 Fit      -0.005661
 5818 Fit      -0.007939
 5819 Fit      -0.012966
 5820 Fit      -0.019689
 5821 Fit       0.000624
 5822 Fit      -0.001280
 5823 Fit      -0.003321
 5824 Fit      -0.005512
 5825 Fit      -0.007868
 5826 Fit      -0.010379
 5827 Fit      -0.012678
 5828 Fit      -0.015028
 5829 Fit      -0.017002
 5830 Fit      -0.001405
 5831 Fit      -0.003234
 5832 Fit      -0.005338
 5833 Fit      -0.007666
 5834 Fit      -0.010156
 5835 Fit      -0.012112
 5836 Fit      -0.014376
 5837 Fit      -0.004718
 5838 Fit      -0.006888
 5839 Fit      -0.009464
 5840 Fit      -0.011188
 5841 Fit      -0.008346
 5842 Fit       0.011412
 5843 Fit       0.010364
 5844 Fit       0.009420
 5845 Fit       0.008546
 5846 Fit       0.015479
 5847 Fit       0.013739
 5848 Fit       0.012404
 5849 Fit       0.011363
 5850 Fit       0.010531
 5851 Fit       0.009874
 5852 Fit       0.009411
 5853 Fit       0.019009
 5854 Fit       0.016382
 5855 Fit       0.014543
 5856 Fit       0.013210
 5857 Fit       0.012196
 5858 Fit       0.011404
 5859 Fit       0.010807
 5860 Fit       0.010450
 5861 Fit       0.010460
 5862 Fit       0.022288
 5863 Fit       0.018822
 5864 Fit       0.016495
 5865 Fit       0.014855
 5866 Fit       0.013638
 5867 Fit       0.012691
 5868 Fit       0.011934
 5869 Fit       0.011346
 5870 Fit       0.010963
 5871 Fit       0.010893
 5872 Fit       0.020105
 5873 Fit       0.017552
 5874 Fit       0.015747
 5875 Fit       0.014405
 5876 Fit       0.013358
 5877 Fit       0.012509
 5878 Fit       0.011812
 5879 Fit       0.011269
 5880 Fit       0.010933
 5881 Fit       0.010938
 5882 Fit       0.018256
 5883 Fit       0.016362
 5884 Fit       0.014931
 5885 Fit       0.013806
 5886 Fit       0.012883
 5887 Fit       0.012099
 5888 Fit       0.011430
 5889 Fit       0.010887
 5890 Fit       0.010526
 5891 Fit       0.010464
 5892 Fit       0.015714
 5893 Fit       0.014385
 5894 Fit       0.013315
 5895 Fit       0.012409
 5896 Fit       0.011612
 5897 Fit       0.010900
 5898 Fit       0.010276
 5899 Fit       0.009775
 5900 Fit       0.009467
 5901 Fit       0.014397
 5902 Fit       0.013172
 5903 Fit       0.012151
 5904 Fit       0.011246
 5905 Fit       0.010408
 5906 Fit       0.009619
 5907 Fit       0.008880
 5908 Fit       0.008209
 5909 Fit       0.007623
 5910 Fit       0.013257
 5911 Fit       0.012010
 5912 Fit       0.010939
 5913 Fit       0.009947
 5914 Fit       0.008977
 5915 Fit       0.007995
 5916 Fit       0.006975
 5917 Fit       0.005863
 5918 Fit       0.011795
 5919 Fit       0.010532
 5920 Fit       0.009390
 5921 Fit       0.008265
 5922 Fit       0.007089
 5923 Fit       0.005797
 5924 Fit       0.004297
 5925 Fit       0.010830
 5926 Fit       0.009368
 5927 Fit       0.008027
 5928 Fit       0.006655
 5929 Fit       0.005138
 5930 Fit       0.003352
 5931 Fit       0.009534
 5932 Fit       0.007914
 5933 Fit       0.006370
 5934 Fit       0.004704
 5935 Fit       0.002753
 5936 Fit       0.006573
 5937 Fit       0.004795
 5938 Fit      -0.008190
 5939 Fit      -0.009540
 5940 Fit      -0.006369
 5941 Fit      -0.004962
 5942 Fit      -0.005060
 5943 Fit      -0.005202
 5944 Fit      -0.003146
 5945 Fit      -0.001496
 5946 Fit      -0.005501
 5947 Fit      -0.003577
 5948 Fit      -0.001111
 5949 Fit       0.001352
 5950 Fit      -0.004816
 5951 Fit      -0.003295
 5952 Fit      -0.000879
 5953 Fit      -0.004657
 5954 Fit      -0.003916
 5955 Fit      -0.002205
 5956 Fit      -0.004404
 5957 Fit      -0.004603
 5958 Fit      -0.004117
 5959 Fit      -0.004387
 5960 Fit      -0.005415
 5961 Fit      -0.002840
 5962 Fit      -0.005758
 5963 Fit      -0.007926
 5964 Fit      -0.009885
 5965 Fit      -0.009807
 5966 Fit      -0.010477
 5967 Fit      -0.018610
 5968 Fit      -0.016769
 5969 Fit      -0.013084
 5970 Fit      -0.011922
 5971 Fit      -0.011341
 5972 Fit      -0.011530
 5973 Fit      -0.016757
 5974 Fit      -0.017087
 5975 Fit      -0.015606
 5976 Fit      -0.014917
 5977 Fit      -0.013881
 5978 Fit      -0.012922
 5979 Fit      -0.012456
 5980 Fit      -0.012738
 5981 Fit      -0.013801
 5982 Fit      -0.015269
 5983 Fit      -0.016016
 5984 Fit      -0.014908
 5985 Fit      -0.015658
 5986 Fit      -0.014550
 5987 Fit      -0.014068
 5988 Fit      -0.013373
 5989 Fit      -0.013127
 5990 Fit      -0.013549
 5991 Fit      -0.013946
 5992 Fit      -0.012909
 5993 Fit      -0.012846
 5994 Fit      -0.014220
 5995 Fit      -0.013625
 5996 Fit      -0.013402
 5997 Fit      -0.013212
 5998 Fit      -0.012579
 5999 Fit      -0.011732
 6000 Fit      -0.012765
 6001 Fit      -0.012915
 6002 Fit      -0.005082
 6003 Fit      -0.000037
 6004 Fit      -0.005279
 6005 Fit       0.000453
 6006 Fit      -0.018502
 6007 Fit      -0.015156
 6008 Fit      -0.016560
 6009 Fit      -0.004256
 6010 Fit      -0.007547
 6011 Fit      -0.010629
 6012 Fit      -0.013199
 6013 Fit      -0.013168
 6014 Fit      -0.014543
 6015 Fit      -0.005351
 6016 Fit      -0.008387
 6017 Fit      -0.011088
 6018 Fit      -0.011153
 6019 Fit      -0.012434
 6020 Fit      -0.008799
 6021 Fit      -0.009086
 6022 Fit      -0.009781
 6023 Fit      -0.006365
 6024 Fit      -0.007770
 6025 Fit      -0.004882
 6026 Fit      -0.007235
 6027 Fit      -0.009975
 6028 Fit      -0.003947
 6029 Fit      -0.006775
 6030 Fit      -0.010166
 6031 Fit      -0.014574
 6032 Fit      -0.003042
 6033 Fit      -0.005989
 6034 Fit      -0.009442
 6035 Fit      -0.013940
 6036 Fit      -0.003244
 6037 Fit      -0.006168
 6038 Fit      -0.009656
 6039 Fit      -0.014233
 6040 Fit      -0.002612
 6041 Fit      -0.005222
 6042 Fit      -0.008326
 6043 Fit      -0.012355
 6044 Fit      -0.017922
 6045 Fit      -0.003353
 6046 Fit      -0.005453
 6047 Fit      -0.008193
 6048 Fit      -0.011879
 6049 Fit      -0.017028
 6050 Fit      -0.006205
 6051 Fit      -0.008342
 6052 Fit      -0.011452
 6053 Fit      -0.015885
 6054 Fit      -0.022225
 6055 Fit      -0.008030
 6056 Fit      -0.010018
 6057 Fit      -0.013240
 6058 Fit      -0.018024
 6059 Fit      -0.024888
 6060 Fit      -0.009811
 6061 Fit      -0.011630
 6062 Fit      -0.014858
 6063 Fit      -0.019707
 6064 Fit      -0.011704
 6065 Fit      -0.013777
 6066 Fit      -0.017428
 6067 Fit      -0.022458
 6068 Fit      -0.013780
 6069 Fit      -0.016694
 6070 Fit      -0.020472
 6071 Fit      -0.022354
 6072 Fit      -0.015780
 6073 Fit      -0.017331
 6074 Fit      -0.014415
 6075 Fit      -0.009583
 6076 Fit      -0.005945
 6077 Fit      -0.014221
 6078 Fit      -0.017713
 6079 Fit      -0.022764
 6080 Fit      -0.017365
 6081 Fit      -0.012074
 6082 Fit      -0.007936
 6083 Fit      -0.004752
 6084 Fit      -0.002276
 6085 Fit      -0.005665
 6086 Fit      -0.007348
 6087 Fit      -0.008775
 6088 Fit      -0.010198
 6089 Fit      -0.012108
 6090 Fit      -0.014934
 6091 Fit      -0.018632
 6092 Fit      -0.022444
 6093 Fit      -0.022957
 6094 Fit      -0.018785
 6095 Fit      -0.014122
 6096 Fit      -0.009899
 6097 Fit      -0.006463
 6098 Fit      -0.003808
 6099 Fit      -0.001836
 6100 Fit      -0.000493
 6101 Fit      -0.003784
 6102 Fit      -0.005034
 6103 Fit      -0.006687
 6104 Fit      -0.008366
 6105 Fit      -0.010345
 6106 Fit      -0.012869
 6107 Fit      -0.015676
 6108 Fit      -0.017817
 6109 Fit      -0.018171
 6110 Fit      -0.016360
 6111 Fit      -0.013089
 6112 Fit      -0.009482
 6113 Fit      -0.006315
 6114 Fit      -0.003880
 6115 Fit      -0.002229
 6116 Fit      -0.001377
 6117 Fit      -0.001342
 6118 Fit      -0.002082
 6119 Fit      -0.003414
 6120 Fit      -0.005033
 6121 Fit      -0.006874
 6122 Fit      -0.009007
 6123 Fit      -0.011334
 6124 Fit      -0.012979
 6125 Fit      -0.012680
 6126 Fit      -0.010362
 6127 Fit      -0.007300
 6128 Fit      -0.004719
 6129 Fit      -0.003174
 6130 Fit      -0.002819
 6131 Fit      -0.003556
 6132 Fit      -0.005578
 6133 Fit      -0.007766
 6134 Fit      -0.009373
 6135 Fit      -0.008225
 6136 Fit      -0.005629
 6137 Fit      -0.004524
 6138 Fit      -0.006640
 6139 Fit       0.021174
 6140 Fit       0.018551
 6141 Fit       0.018457
 6142 Fit       0.018710
 6143 Fit       0.015512
 6144 Fit       0.015953
 6145 Fit       0.016377
 6146 Fit       0.016973
 6147 Fit       0.012737
 6148 Fit       0.013637
 6149 Fit       0.014340
 6150 Fit       0.015016
 6151 Fit       0.015855
 6152 Fit       0.008653
 6153 Fit       0.010340
 6154 Fit       0.011535
 6155 Fit       0.012439
 6156 Fit       0.013190
 6157 Fit       0.013913
 6158 Fit       0.014755
 6159 Fit       0.005659
 6160 Fit       0.007723
 6161 Fit       0.009241
 6162 Fit       0.010385
 6163 Fit       0.011275
 6164 Fit       0.012004
 6165 Fit       0.012655
 6166 Fit       0.013314
 6167 Fit       0.003639
 6168 Fit       0.005823
 6169 Fit       0.007495
 6170 Fit       0.008778
 6171 Fit       0.009766
 6172 Fit       0.010531
 6173 Fit       0.011131
 6174 Fit       0.011609
 6175 Fit       0.011987
 6176 Fit       0.003376
 6177 Fit       0.005312
 6178 Fit       0.006835
 6179 Fit       0.008012
 6180 Fit       0.008901
 6181 Fit       0.009544
 6182 Fit       0.009968
 6183 Fit       0.010166
 6184 Fit       0.010074
 6185 Fit       0.003165
 6186 Fit       0.004862
 6187 Fit       0.006210
 6188 Fit       0.007238
 6189 Fit       0.007973
 6190 Fit       0.008428
 6191 Fit       0.008592
 6192 Fit       0.008409
 6193 Fit       0.007750
 6194 Fit       0.006390
 6195 Fit       0.001560
 6196 Fit       0.003358
 6197 Fit       0.004816
 6198 Fit       0.005923
 6199 Fit       0.006679
 6200 Fit       0.007077
 6201 Fit       0.007088
 6202 Fit       0.006636
 6203 Fit       0.005593
 6204 Fit       0.003811
 6205 Fit       0.001948
 6206 Fit       0.003456
 6207 Fit       0.004617
 6208 Fit       0.005384
 6209 Fit       0.005722
 6210 Fit       0.005588
 6211 Fit       0.004913
 6212 Fit       0.003638
 6213 Fit       0.003021
 6214 Fit       0.003953
 6215 Fit       0.004374
 6216 Fit       0.004218
 6217 Fit       0.003457
 6218 Fit       0.003033
 6219 Fit       0.003047
 6220 Fit       0.000233
 6221 Fit      -0.005937
 6222 Fit      -0.003140
 6223 Fit      -0.000565
 6224 Fit      -0.010633
 6225 Fit      -0.006836
 6226 Fit      -0.003873
 6227 Fit      -0.001343
 6228 Fit       0.000933
 6229 Fit      -0.005704
 6230 Fit      -0.002966
 6231 Fit      -0.000670
 6232 Fit       0.001325
 6233 Fit       0.001783
 6234 Fit      -0.000857
 6235 Fit      -0.002104
 6236 Fit      -0.000154
 6237 Fit       0.001448
 6238 Fit       0.001724
 6239 Fit      -0.000127
 6240 Fit      -0.002470
 6241 Fit      -0.005315
 6242 Fit      -0.006956
 6243 Fit      -0.000894
 6244 Fit       0.000597
 6245 Fit       0.001574
 6246 Fit       0.001924
 6247 Fit       0.001557
 6248 Fit       0.000470
 6249 Fit      -0.001227
 6250 Fit      -0.003281
 6251 Fit      -0.003853
 6252 Fit       0.000138
 6253 Fit       0.000585
 6254 Fit       0.000284
 6255 Fit      -0.000729
 6256 Fit      -0.002235
 6257 Fit       0.012351
 6258 Fit       0.013733
 6259 Fit       0.006573
 6260 Fit       0.007497
 6261 Fit       0.000434
 6262 Fit       0.002495
 6263 Fit       0.005871
 6264 Fit       0.015597
 6265 Fit       0.016238
 6266 Fit       0.017324
 6267 Fit       0.011504
 6268 Fit       0.011598
 6269 Fit       0.012219
 6270 Fit       0.013302
 6271 Fit       0.014741
 6272 Fit       0.016405
 6273 Fit       0.018151
 6274 Fit       0.019838
 6275 Fit       0.007819
 6276 Fit       0.008078
 6277 Fit       0.008853
 6278 Fit       0.010107
 6279 Fit       0.011763
 6280 Fit       0.013716
 6281 Fit       0.015855
 6282 Fit       0.004687
 6283 Fit       0.004613
 6284 Fit       0.005022
 6285 Fit       0.005945
 6286 Fit       0.007363
 6287 Fit       0.009223
 6288 Fit       0.011457
 6289 Fit       0.001744
 6290 Fit       0.001861
 6291 Fit       0.002440
 6292 Fit       0.003515
 6293 Fit       0.005084
 6294 Fit       0.007124
 6295 Fit      -0.000813
 6296 Fit      -0.000318
 6297 Fit       0.000629
 6298 Fit       0.002076
 6299 Fit       0.004037
 6300 Fit      -0.003192
 6301 Fit      -0.002347
 6302 Fit      -0.001126
 6303 Fit       0.000571
 6304 Fit       0.002797
 6305 Fit      -0.005526
 6306 Fit      -0.004163
 6307 Fit      -0.002591
 6308 Fit      -0.000636
 6309 Fit      -0.006641
 6310 Fit      -0.004600
 6311 Fit      -0.009810
 6312 Fit      -0.006868
 6313 Fit       0.022671
 6314 Fit       0.021092
 6315 Fit       0.020917
 6316 Fit       0.022482
 6317 Fit       0.023930
 6318 Fit       0.024007
 6319 Fit       0.022779
 6320 Fit       0.019083
 6321 Fit       0.018121
 6322 Fit       0.018722
 6323 Fit       0.024906
 6324 Fit       0.024100
 6325 Fit       0.022815
 6326 Fit       0.020979
 6327 Fit       0.016534
 6328 Fit       0.015010
 6329 Fit       0.014798
 6330 Fit       0.016007
 6331 Fit       0.025321
 6332 Fit       0.024715
 6333 Fit       0.023957
 6334 Fit       0.022791
 6335 Fit       0.021042
 6336 Fit       0.018793
 6337 Fit       0.013289
 6338 Fit       0.011132
 6339 Fit       0.010296
 6340 Fit       0.010977
 6341 Fit       0.025407
 6342 Fit       0.024869
 6343 Fit       0.024448
 6344 Fit       0.023889
 6345 Fit       0.022941
 6346 Fit       0.021376
 6347 Fit       0.019075
 6348 Fit       0.016193
 6349 Fit       0.024502
 6350 Fit       0.024197
 6351 Fit       0.024032
 6352 Fit       0.023768
 6353 Fit       0.023168
 6354 Fit       0.021975
 6355 Fit       0.019925
 6356 Fit       0.016870
 6357 Fit       0.013016
 6358 Fit       0.023501
 6359 Fit       0.023152
 6360 Fit       0.023164
 6361 Fit       0.023303
 6362 Fit       0.023374
 6363 Fit       0.023178
 6364 Fit       0.022476
 6365 Fit       0.020963
 6366 Fit       0.018276
 6367 Fit       0.021596
 6368 Fit       0.021340
 6369 Fit       0.021560
 6370 Fit       0.022013
 6371 Fit       0.022510
 6372 Fit       0.022873
 6373 Fit       0.022903
 6374 Fit       0.022325
 6375 Fit       0.018788
 6376 Fit       0.019253
 6377 Fit       0.020026
 6378 Fit       0.020933
 6379 Fit       0.021824
 6380 Fit       0.022546
 6381 Fit       0.022911
 6382 Fit       0.022626
 6383 Fit       0.019673
 6384 Fit       0.021075
 -----------------------------------------------------------------
 Leave Link  602 at Wed Nov 29 20:28:30 2017, MaxMem=  2147483648 cpu:         0.9

 Test job not archived.
 1\1\GINC-LAC-080\FOpt\RHF\6-31G(d)\C9H11N1O1\SONGLIN3\29-Nov-2017\0\\#
 HF/6-31G* SCF=tight Test Pop=MK iop(6/33=2) iop(6/42=6) opt\\remark li
 ne goes here\\0,1\H,18.8759450017,-12.4344010767,20.4363213837\C,18.17
 91307003,-11.8644824424,21.034149583\H,18.6038810343,-10.8943862734,21
 .2648906041\H,18.014502417,-12.397924227,21.9653722393\C,16.8647588843
 ,-11.7647714121,20.2888695002\O,16.5027564984,-12.6230060975,19.529499
 7831\H,10.9412881394,-11.846379734,23.5284172103\H,11.3612612753,-9.46
 83410617,23.0370983648\C,11.7093258469,-11.56575227,22.8298378068\C,11
 .9449948933,-10.2317222836,22.5539209405\H,12.2832917349,-13.581999294
 6,22.4024140892\C,12.4664873228,-12.5423524748,22.1963297527\C,12.9361
 574023,-9.8747953542,21.6493487462\H,13.1092787925,-8.8332701997,21.43
 7189244\C,13.4522549028,-12.1845694776,21.2953420494\C,13.6992362698,-
 10.8425091538,21.0137441803\H,14.0343625071,-12.9424319728,20.80196055
 11\H,14.7148488387,-11.0378670836,19.1316966329\H,14.68656694,-9.41025
 68746,19.7646626091\C,14.7913581189,-10.454314208,20.0361906515\N,16.1
 335136003,-10.6555566468,20.5530762909\H,16.4337988791,-10.0609103812,
 21.2916677868\\Version=ES64L-G09RevD.01\State=1-A\HF=-476.5546742\RMSD
 =9.527e-09\RMSF=1.578e-06\Dipole=0.1744947,1.0370561,0.9988249\Quadrup
 ole=3.448642,0.7394939,-4.1881359,3.0768219,1.4839134,-3.3219576\PG=C0
 1 [X(C9H11N1O1)]\\@


 A SLIP OF THE FOOT YOU MAY SOON RECOVER, BUT A SLIP OF THE TONGUE
 YOU MAY NEVER GET OVER. -- BEN FRANKLIN
 Job cpu time:       0 days  0 hours  7 minutes 38.3 seconds.
 File lengths (MBytes):  RWF=    133 Int=      0 D2E=      0 Chk=      4 Scr=      2
 Normal termination of Gaussian 09 at Wed Nov 29 20:28:30 2017.
