 Entering Gaussian System, Link 0=g09
 Initial command:
 /opt/software/Gaussian/g09/l1.exe "/mnt/ls15/scratch/users/songlin3/Gau-105221.inp" -scrdir="/mnt/ls15/scratch/users/songlin3/"
 Entering Link 1 = /opt/software/Gaussian/g09/l1.exe PID=    105222.
  
 Copyright (c) 1988,1990,1992,1993,1995,1998,2003,2009,2013,
            Gaussian, Inc.  All Rights Reserved.
  
 This is part of the Gaussian(R) 09 program.  It is based on
 the Gaussian(R) 03 system (copyright 2003, Gaussian, Inc.),
 the Gaussian(R) 98 system (copyright 1998, Gaussian, Inc.),
 the Gaussian(R) 94 system (copyright 1995, Gaussian, Inc.),
 the Gaussian 92(TM) system (copyright 1992, Gaussian, Inc.),
 the Gaussian 90(TM) system (copyright 1990, Gaussian, Inc.),
 the Gaussian 88(TM) system (copyright 1988, Gaussian, Inc.),
 the Gaussian 86(TM) system (copyright 1986, Carnegie Mellon
 University), and the Gaussian 82(TM) system (copyright 1983,
 Carnegie Mellon University). Gaussian is a federally registered
 trademark of Gaussian, Inc.
  
 This software contains proprietary and confidential information,
 including trade secrets, belonging to Gaussian, Inc.
  
 This software is provided under written license and may be
 used, copied, transmitted, or stored only in accord with that
 written license.
  
 The following legend is applicable only to US Government
 contracts under FAR:
  
                    RESTRICTED RIGHTS LEGEND
  
 Use, reproduction and disclosure by the US Government is
 subject to restrictions as set forth in subparagraphs (a)
 and (c) of the Commercial Computer Software - Restricted
 Rights clause in FAR 52.227-19.
  
 Gaussian, Inc.
 340 Quinnipiac St., Bldg. 40, Wallingford CT 06492
  
  
 ---------------------------------------------------------------
 Warning -- This program may not be used in any manner that
 competes with the business of Gaussian, Inc. or will provide
 assistance to any competitor of Gaussian, Inc.  The licensee
 of this program is prohibited from giving any competitor of
 Gaussian, Inc. access to this program.  By using this program,
 the user acknowledges that Gaussian, Inc. is engaged in the
 business of creating and licensing software in the field of
 computational chemistry and represents and warrants to the
 licensee that it is not a competitor of Gaussian, Inc. and that
 it will not use this program in any manner prohibited above.
 ---------------------------------------------------------------
  

 Cite this work as:
 Gaussian 09, Revision D.01,
 M. J. Frisch, G. W. Trucks, H. B. Schlegel, G. E. Scuseria, 
 M. A. Robb, J. R. Cheeseman, G. Scalmani, V. Barone, B. Mennucci, 
 G. A. Petersson, H. Nakatsuji, M. Caricato, X. Li, H. P. Hratchian, 
 A. F. Izmaylov, J. Bloino, G. Zheng, J. L. Sonnenberg, M. Hada, 
 M. Ehara, K. Toyota, R. Fukuda, J. Hasegawa, M. Ishida, T. Nakajima, 
 Y. Honda, O. Kitao, H. Nakai, T. Vreven, J. A. Montgomery, Jr., 
 J. E. Peralta, F. Ogliaro, M. Bearpark, J. J. Heyd, E. Brothers, 
 K. N. Kudin, V. N. Staroverov, T. Keith, R. Kobayashi, J. Normand, 
 K. Raghavachari, A. Rendell, J. C. Burant, S. S. Iyengar, J. Tomasi, 
 M. Cossi, N. Rega, J. M. Millam, M. Klene, J. E. Knox, J. B. Cross, 
 V. Bakken, C. Adamo, J. Jaramillo, R. Gomperts, R. E. Stratmann, 
 O. Yazyev, A. J. Austin, R. Cammi, C. Pomelli, J. W. Ochterski, 
 R. L. Martin, K. Morokuma, V. G. Zakrzewski, G. A. Voth, 
 P. Salvador, J. J. Dannenberg, S. Dapprich, A. D. Daniels, 
 O. Farkas, J. B. Foresman, J. V. Ortiz, J. Cioslowski, 
 and D. J. Fox, Gaussian, Inc., Wallingford CT, 2013.
 
 ******************************************
 Gaussian 09:  ES64L-G09RevD.01 24-Apr-2013
                29-Nov-2017 
 ******************************************
 %RWF=myrwf
 %NoSave
 %chk=esp.chk
 %NprocShared=4
 Will use up to    4 processors via shared memory.
 %Mem=16GB
 ----------------------------------------------------------------------
 #HF/6-31G* SCF=tight Test Pop=MK iop(6/33=2) iop(6/42=6) opt # iop(6/5
 0=1)
 ----------------------------------------------------------------------
 1/18=20,19=15,38=1/1,3;
 2/9=110,12=2,17=6,18=5,40=1/2;
 3/5=1,6=6,7=1,11=9,16=1,25=1,30=1,71=1/1,2,3;
 4//1;
 5/5=2,32=2,38=5/2;
 6/7=2,8=2,9=2,10=2,15=8,20=1,28=1,33=2,42=6,50=1/1,2;
 7//1,2,3,16;
 1/18=20,19=15/3(2);
 2/9=110/2;
 99//99;
 2/9=110/2;
 3/5=1,6=6,7=1,11=9,16=1,25=1,30=1,71=1/1,2,3;
 4/5=5,16=3,69=1/1;
 5/5=2,32=2,38=5/2;
 7//1,2,3,16;
 1/18=20,19=15/3(-5);
 2/9=110/2;
 6/7=2,8=2,9=2,10=2,15=8,19=2,20=1,28=1,33=2,42=6,50=1/1,2;
 99/9=1/99;
 ---------------------
 remark line goes here
 ---------------------
 Symbolic Z-matrix:
 Charge =  0 Multiplicity = 1
 H                     5.11658  -0.141    -1.10676 
 C                     4.11231  -0.48455  -1.30947 
 H                     4.12744  -1.54411  -1.53675 
 H                     3.7397    0.04837  -2.17888 
 C                     3.23531  -0.15442  -0.12077 
 O                     3.45388   0.79413   0.58388 
 H                    -3.15042   1.85869  -0.73101 
 H                    -1.02257   3.06262  -0.38957 
 C                    -2.28297   1.34296  -0.3654 
 C                    -1.08212   2.01157  -0.17157 
 Cl                   -3.84433  -0.867    -0.30722 
 C                    -2.34506  -0.00362  -0.07427 
 C                     0.0299    1.3419    0.30221 
 H                     0.95575   1.86646   0.45229 
 C                    -1.23868  -0.68853   0.40153 
 C                    -0.04013  -0.01879   0.59121 
 H                    -1.32149  -1.73653   0.62428 
 H                     1.65768  -0.20295   1.88891 
 C                     1.18225  -0.76135   1.09731 
 H                     0.88653  -1.72174   1.50232 
 N                     2.18777  -0.99108   0.07695 
 H                     1.99397  -1.67726  -0.61636 
 

 GradGradGradGradGradGradGradGradGradGradGradGradGradGradGradGradGradGrad
 Berny optimization.
 Initialization pass.
                           ----------------------------
                           !    Initial Parameters    !
                           ! (Angstroms and Degrees)  !
 --------------------------                            --------------------------
 ! Name  Definition              Value          Derivative Info.                !
 --------------------------------------------------------------------------------
 ! R1    R(1,2)                  1.0806         estimate D2E/DX2                !
 ! R2    R(2,3)                  1.0838         estimate D2E/DX2                !
 ! R3    R(2,4)                  1.0857         estimate D2E/DX2                !
 ! R4    R(2,5)                  1.5136         estimate D2E/DX2                !
 ! R5    R(5,6)                  1.2017         estimate D2E/DX2                !
 ! R6    R(5,21)                 1.3551         estimate D2E/DX2                !
 ! R7    R(7,9)                  1.0734         estimate D2E/DX2                !
 ! R8    R(8,10)                 1.0751         estimate D2E/DX2                !
 ! R9    R(9,10)                 1.388          estimate D2E/DX2                !
 ! R10   R(9,12)                 1.3791         estimate D2E/DX2                !
 ! R11   R(10,13)                1.3819         estimate D2E/DX2                !
 ! R12   R(11,12)                1.7457         estimate D2E/DX2                !
 ! R13   R(12,15)                1.3855         estimate D2E/DX2                !
 ! R14   R(13,14)                1.0747         estimate D2E/DX2                !
 ! R15   R(13,16)                1.3928         estimate D2E/DX2                !
 ! R16   R(15,16)                1.386          estimate D2E/DX2                !
 ! R17   R(15,17)                1.0746         estimate D2E/DX2                !
 ! R18   R(16,19)                1.5171         estimate D2E/DX2                !
 ! R19   R(18,19)                1.0791         estimate D2E/DX2                !
 ! R20   R(19,20)                1.0834         estimate D2E/DX2                !
 ! R21   R(19,21)                1.4509         estimate D2E/DX2                !
 ! R22   R(21,22)                0.9945         estimate D2E/DX2                !
 ! A1    A(1,2,3)              109.7059         estimate D2E/DX2                !
 ! A2    A(1,2,4)              108.2477         estimate D2E/DX2                !
 ! A3    A(1,2,5)              108.7727         estimate D2E/DX2                !
 ! A4    A(3,2,4)              108.4668         estimate D2E/DX2                !
 ! A5    A(3,2,5)              112.7062         estimate D2E/DX2                !
 ! A6    A(4,2,5)              108.8429         estimate D2E/DX2                !
 ! A7    A(2,5,6)              121.8214         estimate D2E/DX2                !
 ! A8    A(2,5,21)             115.3285         estimate D2E/DX2                !
 ! A9    A(6,5,21)             122.8458         estimate D2E/DX2                !
 ! A10   A(7,9,10)             121.0166         estimate D2E/DX2                !
 ! A11   A(7,9,12)             120.3101         estimate D2E/DX2                !
 ! A12   A(10,9,12)            118.673          estimate D2E/DX2                !
 ! A13   A(8,10,9)             119.3758         estimate D2E/DX2                !
 ! A14   A(8,10,13)            119.9164         estimate D2E/DX2                !
 ! A15   A(9,10,13)            120.7072         estimate D2E/DX2                !
 ! A16   A(9,12,11)            119.5651         estimate D2E/DX2                !
 ! A17   A(9,12,15)            121.2812         estimate D2E/DX2                !
 ! A18   A(11,12,15)           119.1537         estimate D2E/DX2                !
 ! A19   A(10,13,14)           120.3073         estimate D2E/DX2                !
 ! A20   A(10,13,16)           120.273          estimate D2E/DX2                !
 ! A21   A(14,13,16)           119.4196         estimate D2E/DX2                !
 ! A22   A(12,15,16)           119.912          estimate D2E/DX2                !
 ! A23   A(12,15,17)           119.4564         estimate D2E/DX2                !
 ! A24   A(16,15,17)           120.631          estimate D2E/DX2                !
 ! A25   A(13,16,15)           119.1532         estimate D2E/DX2                !
 ! A26   A(13,16,19)           120.4553         estimate D2E/DX2                !
 ! A27   A(15,16,19)           120.3899         estimate D2E/DX2                !
 ! A28   A(16,19,18)           110.2688         estimate D2E/DX2                !
 ! A29   A(16,19,20)           109.7946         estimate D2E/DX2                !
 ! A30   A(16,19,21)           113.6588         estimate D2E/DX2                !
 ! A31   A(18,19,20)           107.7417         estimate D2E/DX2                !
 ! A32   A(18,19,21)           107.007          estimate D2E/DX2                !
 ! A33   A(20,19,21)           108.162          estimate D2E/DX2                !
 ! A34   A(5,21,19)            122.724          estimate D2E/DX2                !
 ! A35   A(5,21,22)            118.3523         estimate D2E/DX2                !
 ! A36   A(19,21,22)           117.6758         estimate D2E/DX2                !
 ! D1    D(1,2,5,6)             29.5744         estimate D2E/DX2                !
 ! D2    D(1,2,5,21)          -151.1612         estimate D2E/DX2                !
 ! D3    D(3,2,5,6)            151.4639         estimate D2E/DX2                !
 ! D4    D(3,2,5,21)           -29.2717         estimate D2E/DX2                !
 ! D5    D(4,2,5,6)            -88.1644         estimate D2E/DX2                !
 ! D6    D(4,2,5,21)            91.1            estimate D2E/DX2                !
 ! D7    D(2,5,21,19)         -174.6667         estimate D2E/DX2                !
 ! D8    D(2,5,21,22)           -7.7353         estimate D2E/DX2                !
 ! D9    D(6,5,21,19)            4.5893         estimate D2E/DX2                !
 ! D10   D(6,5,21,22)          171.5208         estimate D2E/DX2                !
 ! D11   D(7,9,10,8)             0.1341         estimate D2E/DX2                !
 ! D12   D(7,9,10,13)          179.8572         estimate D2E/DX2                !
 ! D13   D(12,9,10,8)         -179.654          estimate D2E/DX2                !
 ! D14   D(12,9,10,13)           0.0692         estimate D2E/DX2                !
 ! D15   D(7,9,12,11)            0.1229         estimate D2E/DX2                !
 ! D16   D(7,9,12,15)         -179.8518         estimate D2E/DX2                !
 ! D17   D(10,9,12,11)         179.9125         estimate D2E/DX2                !
 ! D18   D(10,9,12,15)          -0.0622         estimate D2E/DX2                !
 ! D19   D(8,10,13,14)          -0.1211         estimate D2E/DX2                !
 ! D20   D(8,10,13,16)         179.7887         estimate D2E/DX2                !
 ! D21   D(9,10,13,14)        -179.8428         estimate D2E/DX2                !
 ! D22   D(9,10,13,16)           0.067          estimate D2E/DX2                !
 ! D23   D(9,12,15,16)          -0.0814         estimate D2E/DX2                !
 ! D24   D(9,12,15,17)         179.6488         estimate D2E/DX2                !
 ! D25   D(11,12,15,16)        179.9437         estimate D2E/DX2                !
 ! D26   D(11,12,15,17)         -0.3261         estimate D2E/DX2                !
 ! D27   D(10,13,16,15)         -0.2095         estimate D2E/DX2                !
 ! D28   D(10,13,16,19)        179.336          estimate D2E/DX2                !
 ! D29   D(14,13,16,15)        179.7011         estimate D2E/DX2                !
 ! D30   D(14,13,16,19)         -0.7534         estimate D2E/DX2                !
 ! D31   D(12,15,16,13)          0.2159         estimate D2E/DX2                !
 ! D32   D(12,15,16,19)       -179.3298         estimate D2E/DX2                !
 ! D33   D(17,15,16,13)       -179.511          estimate D2E/DX2                !
 ! D34   D(17,15,16,19)          0.9432         estimate D2E/DX2                !
 ! D35   D(13,16,19,18)         47.0421         estimate D2E/DX2                !
 ! D36   D(13,16,19,20)        165.6071         estimate D2E/DX2                !
 ! D37   D(13,16,19,21)        -73.1035         estimate D2E/DX2                !
 ! D38   D(15,16,19,18)       -133.4181         estimate D2E/DX2                !
 ! D39   D(15,16,19,20)        -14.8531         estimate D2E/DX2                !
 ! D40   D(15,16,19,21)        106.4363         estimate D2E/DX2                !
 ! D41   D(16,19,21,5)          94.0955         estimate D2E/DX2                !
 ! D42   D(16,19,21,22)        -72.9192         estimate D2E/DX2                !
 ! D43   D(18,19,21,5)         -27.8771         estimate D2E/DX2                !
 ! D44   D(18,19,21,22)        165.1082         estimate D2E/DX2                !
 ! D45   D(20,19,21,5)        -143.7075         estimate D2E/DX2                !
 ! D46   D(20,19,21,22)         49.2778         estimate D2E/DX2                !
 --------------------------------------------------------------------------------
 Trust Radius=3.00D-01 FncErr=1.00D-07 GrdErr=1.00D-07
 Number of steps in this run=    114 maximum allowed number of steps=    132.
 GradGradGradGradGradGradGradGradGradGradGradGradGradGradGradGradGradGrad

                          Input orientation:                          
 ---------------------------------------------------------------------
 Center     Atomic      Atomic             Coordinates (Angstroms)
 Number     Number       Type             X           Y           Z
 ---------------------------------------------------------------------
      1          1           0        5.116585   -0.140999   -1.106764
      2          6           0        4.112312   -0.484549   -1.309473
      3          1           0        4.127441   -1.544113   -1.536749
      4          1           0        3.739701    0.048372   -2.178883
      5          6           0        3.235311   -0.154423   -0.120769
      6          8           0        3.453884    0.794127    0.583883
      7          1           0       -3.150423    1.858693   -0.731014
      8          1           0       -1.022574    3.062622   -0.389568
      9          6           0       -2.282973    1.342955   -0.365396
     10          6           0       -1.082121    2.011565   -0.171572
     11         17           0       -3.844326   -0.867001   -0.307223
     12          6           0       -2.345059   -0.003617   -0.074274
     13          6           0        0.029903    1.341900    0.302206
     14          1           0        0.955753    1.866457    0.452286
     15          6           0       -1.238681   -0.688526    0.401529
     16          6           0       -0.040126   -0.018794    0.591205
     17          1           0       -1.321486   -1.736534    0.624284
     18          1           0        1.657682   -0.202953    1.888911
     19          6           0        1.182246   -0.761348    1.097311
     20          1           0        0.886532   -1.721740    1.502316
     21          7           0        2.187774   -0.991075    0.076952
     22          1           0        1.993974   -1.677258   -0.616362
 ---------------------------------------------------------------------
                    Distance matrix (angstroms):
                    1          2          3          4          5
     1  H    0.000000
     2  C    1.080593   0.000000
     3  H    1.769752   1.083771   0.000000
     4  H    1.755309   1.085688   1.760309   0.000000
     5  C    2.124043   1.513648   2.175347   2.128701   0.000000
     6  O    2.548985   2.377675   3.227712   2.875886   1.201689
     7  H    8.513717   7.653281   8.074379   7.269621   6.723290
     8  H    6.961812   6.308383   7.004333   5.913258   5.343334
     9  C    7.583219   6.717940   7.127457   6.421626   5.723062
    10  C    6.628127   5.874312   6.453378   5.579730   4.830559
    11  Cl   9.025756   8.028628   8.094398   7.865016   7.117850
    12  C    7.533992   6.592014   6.812137   6.438663   5.582601
    13  C    5.482565   4.753892   5.338599   4.646678   3.562658
    14  H    4.875760   4.312179   5.064371   4.240147   3.099796
    15  C    6.554704   5.621589   5.769247   5.655602   4.535931
    16  C    5.430442   4.590452   4.921727   4.686682   3.354667
    17  H    6.854999   5.901952   5.864972   6.054688   4.880838
    18  H    4.576234   4.041555   4.430978   4.576562   2.555403
    19  C    4.552121   3.801909   4.028048   4.234344   2.463159
    20  H    5.215303   4.454487   4.446455   4.982479   3.256939
    21  N    3.271352   2.425405   2.583058   2.928774   1.355144
    22  H    3.514440   2.527907   2.327342   2.909782   2.026217
                    6          7          8          9         10
     6  O    0.000000
     7  H    6.817560   0.000000
     8  H    5.111981   2.468557   0.000000
     9  C    5.840708   1.073374   2.132239   0.000000
    10  C    4.756912   2.148073   1.075076   1.388039   0.000000
    11  Cl   7.537724   2.844382   4.838492   2.706495   3.991782
    12  C    5.890442   2.132632   3.354132   1.379080   2.380218
    13  C    3.478943   3.383651   2.132403   2.407299   1.381852
    14  H    2.721740   4.273282   2.460347   3.381125   2.136161
    15  C    4.924599   3.380198   3.839746   2.409488   2.764678
    16  C    3.587339   3.866157   3.379681   2.792814   2.406229
    17  H    5.404631   4.255291   4.914178   3.374489   3.839131
    18  H    2.433846   5.850835   4.799919   4.795883   4.081201
    19  C    2.800616   5.383253   4.657766   4.309912   3.798219
    20  H    3.710041   5.839886   5.487625   4.788159   4.540381
    21  N    2.246544   6.104943   5.191959   5.062702   4.446327
    22  H    3.111217   6.243470   5.622940   5.241846   4.823651
                   11         12         13         14         15
    11  Cl   0.000000
    12  C    1.745709   0.000000
    13  C    4.501144   2.755467   0.000000
    14  H    5.575787   3.830118   1.074654   0.000000
    15  C    2.706209   1.385482   2.396205   3.368391   0.000000
    16  C    3.999821   2.399127   1.392807   2.136643   1.386020
    17  H    2.826396   2.130419   3.377387   4.265788   1.074615
    18  H    5.961213   4.462708   2.748430   2.615158   3.291961
    19  C    5.220182   3.793237   2.526606   2.715274   2.519981
    20  H    5.136733   3.985068   3.399995   3.739320   2.606874
    21  N    6.045595   4.641607   3.185894   3.134364   3.455066
    22  H    5.902358   4.682109   3.717076   3.844194   3.530404
                   16         17         18         19         20
    16  C    0.000000
    17  H    2.143270   0.000000
    18  H    2.144879   3.581423   0.000000
    19  C    1.517143   2.728262   1.079108   0.000000
    20  H    2.142159   2.376237   1.746666   1.083434   0.000000
    21  N    2.484618   3.629075   2.045808   1.450860   2.063677
    22  H    2.888994   3.540479   2.926271   2.105818   2.391067
                   21         22
    21  N    0.000000
    22  H    0.994530   0.000000
 Stoichiometry    C9H10ClNO
 Framework group  C1[X(C9H10ClNO)]
 Deg. of freedom    60
 Full point group                 C1      NOp   1
 Largest Abelian subgroup         C1      NOp   1
 Largest concise Abelian subgroup C1      NOp   1
                         Standard orientation:                         
 ---------------------------------------------------------------------
 Center     Atomic      Atomic             Coordinates (Angstroms)
 Number     Number       Type             X           Y           Z
 ---------------------------------------------------------------------
      1          1           0       -5.116585   -0.140999    1.106764
      2          6           0       -4.112312   -0.484549    1.309473
      3          1           0       -4.127441   -1.544113    1.536749
      4          1           0       -3.739701    0.048372    2.178883
      5          6           0       -3.235311   -0.154423    0.120769
      6          8           0       -3.453884    0.794127   -0.583883
      7          1           0        3.150423    1.858693    0.731014
      8          1           0        1.022574    3.062622    0.389568
      9          6           0        2.282973    1.342955    0.365396
     10          6           0        1.082121    2.011565    0.171572
     11         17           0        3.844326   -0.867001    0.307223
     12          6           0        2.345059   -0.003617    0.074274
     13          6           0       -0.029903    1.341900   -0.302206
     14          1           0       -0.955753    1.866457   -0.452286
     15          6           0        1.238681   -0.688526   -0.401529
     16          6           0        0.040126   -0.018794   -0.591205
     17          1           0        1.321486   -1.736534   -0.624284
     18          1           0       -1.657682   -0.202953   -1.888911
     19          6           0       -1.182246   -0.761348   -1.097311
     20          1           0       -0.886532   -1.721740   -1.502316
     21          7           0       -2.187774   -0.991075   -0.076952
     22          1           0       -1.993974   -1.677258    0.616362
 ---------------------------------------------------------------------
 Rotational constants (GHZ):      1.9886476      0.3539252      0.3272933
 Standard basis: 6-31G(d) (6D, 7F)
 There are   204 symmetry adapted cartesian basis functions of A   symmetry.
 There are   204 symmetry adapted basis functions of A   symmetry.
   204 basis functions,   400 primitive gaussians,   204 cartesian basis functions
    48 alpha electrons       48 beta electrons
       nuclear repulsion energy       733.9035448708 Hartrees.
 NAtoms=   22 NActive=   22 NUniq=   22 SFac= 1.00D+00 NAtFMM=   60 NAOKFM=F Big=F
 Integral buffers will be    131072 words long.
 Raffenetti 1 integral format.
 Two-electron integral symmetry is turned on.
 One-electron integrals computed using PRISM.
 NBasis=   204 RedAO= T EigKep=  4.18D-04  NBF=   204
 NBsUse=   204 1.00D-06 EigRej= -1.00D+00 NBFU=   204
 ExpMin= 1.43D-01 ExpMax= 2.52D+04 ExpMxC= 3.78D+03 IAcc=1 IRadAn=         1 AccDes= 0.00D+00
 Harris functional with IExCor=  205 and IRadAn=       1 diagonalized for initial guess.
 HarFok:  IExCor=  205 AccDes= 0.00D+00 IRadAn=         1 IDoV= 1 UseB2=F ITyADJ=14
 ICtDFT=  3500011 ScaDFX=  1.000000  1.000000  1.000000  1.000000
 FoFCou: FMM=F IPFlag=           0 FMFlag=      100000 FMFlg1=           0
         NFxFlg=           0 DoJE=T BraDBF=F KetDBF=T FulRan=T
         wScrn=  0.000000 ICntrl=     500 IOpCl=  0 I1Cent=   200000004 NGrid=           0
         NMat0=    1 NMatS0=      1 NMatT0=    0 NMatD0=    1 NMtDS0=    0 NMtDT0=    0
 Petite list used in FoFCou.
 Keep R1 ints in memory in canonical form, NReq=223078128.
 Requested convergence on RMS density matrix=1.00D-08 within 128 cycles.
 Requested convergence on MAX density matrix=1.00D-06.
 Requested convergence on             energy=1.00D-06.
 No special actions if energy rises.
 SCF Done:  E(RHF) =  -935.454971721     A.U. after   15 cycles
            NFock= 15  Conv=0.38D-08     -V/T= 2.0008

 **********************************************************************

            Population analysis using the SCF density.

 **********************************************************************

 Orbital symmetries:
 BldTbl:  Degeneracy threshold= 1.00D-02
       Occupied  (A) (A) (A) (A) (A) (A) (A) (A) (A) (A) (A) (A)
                 (A) (A) (A) (A) (A) (A) (A) (A) (A) (A) (A) (A)
                 (A) (A) (A) (A) (A) (A) (A) (A) (A) (A) (A) (A)
                 (A) (A) (A) (A) (A) (A) (A) (A) (A) (A) (A) (A)
       Virtual   (A) (A) (A) (A) (A) (A) (A) (A) (A) (A) (A) (A)
                 (A) (A) (A) (A) (A) (A) (A) (A) (A) (A) (A) (A)
                 (A) (A) (A) (A) (A) (A) (A) (A) (A) (A) (A) (A)
                 (A) (A) (A) (A) (A) (A) (A) (A) (A) (A) (A) (A)
                 (A) (A) (A) (A) (A) (A) (A) (A) (A) (A) (A) (A)
                 (A) (A) (A) (A) (A) (A) (A) (A) (A) (A) (A) (A)
                 (A) (A) (A) (A) (A) (A) (A) (A) (A) (A) (A) (A)
                 (A) (A) (A) (A) (A) (A) (A) (A) (A) (A) (A) (A)
                 (A) (A) (A) (A) (A) (A) (A) (A) (A) (A) (A) (A)
                 (A) (A) (A) (A) (A) (A) (A) (A) (A) (A) (A) (A)
                 (A) (A) (A) (A) (A) (A) (A) (A) (A) (A) (A) (A)
                 (A) (A) (A) (A) (A) (A) (A) (A) (A) (A) (A) (A)
                 (A) (A) (A) (A) (A) (A) (A) (A) (A) (A) (A) (A)
 The electronic state is 1-A.
 Alpha  occ. eigenvalues -- -104.82615 -20.52572 -15.59126 -11.35295 -11.30312
 Alpha  occ. eigenvalues --  -11.27497 -11.25225 -11.24828 -11.24739 -11.24536
 Alpha  occ. eigenvalues --  -11.23732 -11.23643 -10.55955  -8.02894  -8.02563
 Alpha  occ. eigenvalues --   -8.02560  -1.39425  -1.24258  -1.19232  -1.12217
 Alpha  occ. eigenvalues --   -1.05597  -1.01466  -0.99758  -0.93792  -0.84000
 Alpha  occ. eigenvalues --   -0.81072  -0.79466  -0.70932  -0.69628  -0.66183
 Alpha  occ. eigenvalues --   -0.65735  -0.64388  -0.62175  -0.59562  -0.58712
 Alpha  occ. eigenvalues --   -0.58487  -0.56810  -0.55306  -0.53955  -0.53229
 Alpha  occ. eigenvalues --   -0.50695  -0.50311  -0.46501  -0.45357  -0.42388
 Alpha  occ. eigenvalues --   -0.39610  -0.34714  -0.33231
 Alpha virt. eigenvalues --    0.12588   0.13111   0.19270   0.20532   0.21697
 Alpha virt. eigenvalues --    0.25907   0.27108   0.28389   0.30133   0.30757
 Alpha virt. eigenvalues --    0.31511   0.32680   0.33689   0.34477   0.35002
 Alpha virt. eigenvalues --    0.39420   0.40981   0.43402   0.44255   0.46827
 Alpha virt. eigenvalues --    0.47927   0.51254   0.53103   0.58688   0.59324
 Alpha virt. eigenvalues --    0.59738   0.62379   0.63693   0.68232   0.71403
 Alpha virt. eigenvalues --    0.72968   0.73078   0.74796   0.76283   0.76700
 Alpha virt. eigenvalues --    0.78708   0.80217   0.81812   0.82711   0.82922
 Alpha virt. eigenvalues --    0.83580   0.84666   0.85620   0.87846   0.88776
 Alpha virt. eigenvalues --    0.91657   0.94841   0.95833   0.98244   0.99638
 Alpha virt. eigenvalues --    1.00556   1.02361   1.06652   1.07971   1.08629
 Alpha virt. eigenvalues --    1.09712   1.11526   1.11886   1.13658   1.14654
 Alpha virt. eigenvalues --    1.15152   1.16382   1.17479   1.17922   1.19097
 Alpha virt. eigenvalues --    1.19774   1.20233   1.21096   1.22048   1.23077
 Alpha virt. eigenvalues --    1.25489   1.28979   1.33248   1.35336   1.38154
 Alpha virt. eigenvalues --    1.39889   1.41274   1.44714   1.46169   1.48908
 Alpha virt. eigenvalues --    1.49937   1.54589   1.58018   1.60233   1.63130
 Alpha virt. eigenvalues --    1.67186   1.68559   1.71453   1.72482   1.74848
 Alpha virt. eigenvalues --    1.75755   1.77887   1.80895   1.82281   1.84224
 Alpha virt. eigenvalues --    1.94036   2.00832   2.04365   2.08625   2.11124
 Alpha virt. eigenvalues --    2.11591   2.13209   2.14013   2.17165   2.20351
 Alpha virt. eigenvalues --    2.24689   2.25729   2.26614   2.30652   2.32727
 Alpha virt. eigenvalues --    2.36745   2.39094   2.40775   2.42799   2.45463
 Alpha virt. eigenvalues --    2.47635   2.50338   2.52514   2.55633   2.56644
 Alpha virt. eigenvalues --    2.60608   2.62658   2.66008   2.67812   2.70105
 Alpha virt. eigenvalues --    2.74561   2.77230   2.81127   2.89174   2.92225
 Alpha virt. eigenvalues --    2.93651   2.99290   3.04886   3.05352   3.06728
 Alpha virt. eigenvalues --    3.11148   3.11907   3.15871   3.22722   3.28427
 Alpha virt. eigenvalues --    3.38151   3.43383   3.54381   3.78656   4.39171
 Alpha virt. eigenvalues --    4.47906   4.48971   4.52999   4.57152   4.63725
 Alpha virt. eigenvalues --    4.69068   4.75574   4.78651   4.84302   4.92561
 Alpha virt. eigenvalues --    5.13431
          Condensed to atoms (all electrons):
               1          2          3          4          5          6
     1  H    0.464010   0.384198  -0.021432  -0.017876  -0.030776   0.002810
     2  C    0.384198   5.257834   0.375364   0.377064   0.372426  -0.070887
     3  H   -0.021432   0.375364   0.524907  -0.024045  -0.037681   0.002366
     4  H   -0.017876   0.377064  -0.024045   0.490012  -0.027190   0.000038
     5  C   -0.030776   0.372426  -0.037681  -0.027190   4.141293   0.598565
     6  O    0.002810  -0.070887   0.002366   0.000038   0.598565   8.167000
     7  H    0.000000   0.000000   0.000000   0.000000   0.000000   0.000000
     8  H    0.000000   0.000000   0.000000   0.000000   0.000001  -0.000002
     9  C    0.000000   0.000000   0.000000   0.000000  -0.000001   0.000000
    10  C    0.000000   0.000002   0.000000  -0.000001   0.000056   0.000096
    11  Cl   0.000000   0.000000   0.000000   0.000000   0.000000   0.000000
    12  C    0.000000   0.000000   0.000000   0.000000  -0.000002   0.000000
    13  C    0.000001  -0.000018  -0.000004   0.000026   0.002178  -0.001510
    14  H   -0.000001   0.000162  -0.000002  -0.000028   0.000832   0.008007
    15  C    0.000000  -0.000009   0.000001   0.000001  -0.000083  -0.000036
    16  C   -0.000002  -0.000438   0.000010   0.000081  -0.001841  -0.002836
    17  H    0.000000   0.000000   0.000000   0.000000  -0.000001   0.000000
    18  H    0.000004   0.000355  -0.000028  -0.000009  -0.001094   0.006906
    19  C   -0.000106   0.004605   0.000000  -0.000196  -0.022459   0.005266
    20  H    0.000003  -0.000011  -0.000024  -0.000002   0.002340   0.000394
    21  N    0.003705  -0.116674   0.005615   0.000464   0.270371  -0.104358
    22  H    0.000048   0.000008   0.000549   0.000020  -0.017755   0.002418
               7          8          9         10         11         12
     1  H    0.000000   0.000000   0.000000   0.000000   0.000000   0.000000
     2  C    0.000000   0.000000   0.000000   0.000002   0.000000   0.000000
     3  H    0.000000   0.000000   0.000000   0.000000   0.000000   0.000000
     4  H    0.000000   0.000000   0.000000  -0.000001   0.000000   0.000000
     5  C    0.000000   0.000001  -0.000001   0.000056   0.000000  -0.000002
     6  O    0.000000  -0.000002   0.000000   0.000096   0.000000   0.000000
     7  H    0.440976  -0.001775   0.383409  -0.026224   0.000184  -0.030344
     8  H   -0.001775   0.458377  -0.030882   0.383015  -0.000097   0.002555
     9  C    0.383409  -0.030882   4.939943   0.536148  -0.066922   0.543903
    10  C   -0.026224   0.383015   0.536148   4.895332   0.002904  -0.040204
    11  Cl   0.000184  -0.000097  -0.066922   0.002904  16.923353   0.213950
    12  C   -0.030344   0.002555   0.543903  -0.040204   0.213950   5.018906
    13  C    0.002317  -0.027186  -0.044782   0.543229   0.000148  -0.036237
    14  H   -0.000086  -0.001340   0.002419  -0.026027   0.000006   0.000112
    15  C    0.002294   0.000330  -0.049443  -0.036868  -0.067928   0.522420
    16  C    0.000184   0.002150  -0.030791  -0.040665   0.002876  -0.038653
    17  H   -0.000110   0.000010   0.002314   0.000063   0.000196  -0.029718
    18  H    0.000000   0.000000  -0.000001   0.000058   0.000002  -0.000064
    19  C    0.000005  -0.000121   0.000274   0.002282  -0.000107   0.002752
    20  H    0.000000   0.000002  -0.000023  -0.000032  -0.000008   0.000276
    21  N    0.000000   0.000005   0.000003  -0.000031   0.000002  -0.000011
    22  H    0.000000   0.000000  -0.000005  -0.000005   0.000000   0.000000
              13         14         15         16         17         18
     1  H    0.000001  -0.000001   0.000000  -0.000002   0.000000   0.000004
     2  C   -0.000018   0.000162  -0.000009  -0.000438   0.000000   0.000355
     3  H   -0.000004  -0.000002   0.000001   0.000010   0.000000  -0.000028
     4  H    0.000026  -0.000028   0.000001   0.000081   0.000000  -0.000009
     5  C    0.002178   0.000832  -0.000083  -0.001841  -0.000001  -0.001094
     6  O   -0.001510   0.008007  -0.000036  -0.002836   0.000000   0.006906
     7  H    0.002317  -0.000086   0.002294   0.000184  -0.000110   0.000000
     8  H   -0.027186  -0.001340   0.000330   0.002150   0.000010   0.000000
     9  C   -0.044782   0.002419  -0.049443  -0.030791   0.002314  -0.000001
    10  C    0.543229  -0.026027  -0.036868  -0.040665   0.000063   0.000058
    11  Cl   0.000148   0.000006  -0.067928   0.002876   0.000196   0.000002
    12  C   -0.036237   0.000112   0.522420  -0.038653  -0.029718  -0.000064
    13  C    4.944150   0.372718  -0.045969   0.553483   0.002870  -0.002757
    14  H    0.372718   0.418955   0.002655  -0.027167  -0.000100   0.000580
    15  C   -0.045969   0.002655   4.981677   0.559801   0.380905   0.001862
    16  C    0.553483  -0.027167   0.559801   4.868791  -0.029321  -0.040928
    17  H    0.002870  -0.000100   0.380905  -0.029321   0.451106   0.000048
    18  H   -0.002757   0.000580   0.001862  -0.040928   0.000048   0.445956
    19  C   -0.041024  -0.000437  -0.036850   0.328805  -0.003105   0.410157
    20  H    0.003242  -0.000049  -0.000876  -0.060048   0.002582  -0.020566
    21  N   -0.000797  -0.001911  -0.001036  -0.074825   0.000146  -0.039884
    22  H    0.000241  -0.000036   0.000898   0.001287   0.000043   0.003013
              19         20         21         22
     1  H   -0.000106   0.000003   0.003705   0.000048
     2  C    0.004605  -0.000011  -0.116674   0.000008
     3  H    0.000000  -0.000024   0.005615   0.000549
     4  H   -0.000196  -0.000002   0.000464   0.000020
     5  C   -0.022459   0.002340   0.270371  -0.017755
     6  O    0.005266   0.000394  -0.104358   0.002418
     7  H    0.000005   0.000000   0.000000   0.000000
     8  H   -0.000121   0.000002   0.000005   0.000000
     9  C    0.000274  -0.000023   0.000003  -0.000005
    10  C    0.002282  -0.000032  -0.000031  -0.000005
    11  Cl  -0.000107  -0.000008   0.000002   0.000000
    12  C    0.002752   0.000276  -0.000011   0.000000
    13  C   -0.041024   0.003242  -0.000797   0.000241
    14  H   -0.000437  -0.000049  -0.001911  -0.000036
    15  C   -0.036850  -0.000876  -0.001036   0.000898
    16  C    0.328805  -0.060048  -0.074825   0.001287
    17  H   -0.003105   0.002582   0.000146   0.000043
    18  H    0.410157  -0.020566  -0.039884   0.003013
    19  C    4.921799   0.419316   0.193985  -0.022768
    20  H    0.419316   0.508301  -0.042882  -0.002103
    21  N    0.193985  -0.042882   7.368765   0.322566
    22  H   -0.022768  -0.002103   0.322566   0.328935
 Mulliken charges:
               1
     1  H    0.215413
     2  C   -0.583984
     3  H    0.174405
     4  H    0.201642
     5  C    0.750819
     6  O   -0.614235
     7  H    0.229170
     8  H    0.214957
     9  C   -0.185563
    10  C   -0.193128
    11  Cl  -0.008559
    12  C   -0.129642
    13  C   -0.224321
    14  H    0.250740
    15  C   -0.213749
    16  C    0.030048
    17  H    0.222071
    18  H    0.236390
    19  C   -0.162072
    20  H    0.190169
    21  N   -0.783218
    22  H    0.382646
 Sum of Mulliken charges =   0.00000
 Mulliken charges with hydrogens summed into heavy atoms:
               1
     2  C    0.007475
     5  C    0.750819
     6  O   -0.614235
     9  C    0.043608
    10  C    0.021829
    11  Cl  -0.008559
    12  C   -0.129642
    13  C    0.026419
    15  C    0.008322
    16  C    0.030048
    19  C    0.264488
    21  N   -0.400572
 DipInt: DoE/N= T F RetVal/Mat= T F Init=T NMatP=  1 IDeriv=0 Min/MaxMlt=  0  4
 Entering OneElI...
 OneElI was handed  2147374359 working-precision words.
 Multipole integrals L=0 to 4 MinM= 0 MaxM= 0.
 Requested accuracy = 0.1000D-12
 ShPair: Thresh= 1.00D-13 NBox=     0 BxSize= 0.00D+00 RnKept= 1.71D+01
         NSMCal=                 2415 NSMKep=                2121
 PrsmSu:  NPrtUS=   1 ThrOK=F IAlg=1 NPAlg=1 LenDen=           0.
 Prism:   IPart=     0 DynPar=F LinDyn=F Incr=          21.
 PRISM was handed  2147177338 working-precision words and  2121 shell-pairs
 IPart=  0 NShTot=        2121 NBatch=          53 AvBLen=        40.0
 PrSmSu:  NxtVal=             22.
 Electronic moments (au):
        -96.00000000         -0.28250598         -0.67955442          0.70513121
      -2606.77174619       -432.03221785       -209.19471974          8.53100856
         -5.32836917          1.66755243        892.15235499       -550.17299738
        -57.67848445       -419.06312223       1382.08827730      -1636.59740465
        602.80422803        100.49764799        -31.60295729       -214.97454551
    -124761.74790156      -5268.98092871      -1711.88871644       6479.55803092
       4606.40102077      -1427.02772865       -269.75600166       1091.01144859
        -12.70712326      -8248.56609586      -6805.62260881       -788.55428130
       2277.71055647       -403.39319585       -510.22074392
 Electronic spatial extent (au):  <R**2>=           3247.9987
 DipInt: DoE/N= F T RetVal/Mat= T F Init=T NMatP=  1 IDeriv=0 Min/MaxMlt=  0  4
 Nuclear    moments (au):
         96.00000000          0.00000000          0.00000000          0.00000000
       2541.49521035        378.66984740        151.47153203          0.00000000
          0.00010533         -0.00004120       -915.28827877        550.44839738
         57.57154857        427.44664513      -1406.28960556       1682.90352607
       -616.76773188       -107.82762969         39.29490200        219.23834594
     115567.21432091       3876.52614357        976.36191327      -6200.91180214
      -4845.10351913       1444.59786775        283.26376488      -1075.19142891
         12.94371372       6486.92648939       5172.60039951        406.90181882
      -2232.48846562        402.81933719        505.47115277
 Total      moments (au):
          0.00000000         -0.28250598         -0.67955442          0.70513121
        -65.27653584        -53.36237045        -57.72318771          8.53100856
         -5.32826384          1.66751123        -23.13592378          0.27540000
         -0.10693589          8.38352291        -24.20132826         46.30612141
        -13.96350385         -7.32998169          7.69194471          4.26380043
      -9194.53358065      -1392.45478513       -735.52680317        278.64622878
       -238.70249837         17.57013910         13.50776323         15.82001967
          0.23659045      -1761.63960647      -1633.02220930       -381.65246248
         45.22209086         -0.57385866         -4.74959115
 Traceless Quadrup. (au):
         -6.48917117          5.42499422          1.06417696          8.53100856
         -5.32826384          1.66751123
 Charge=              0.0000 electrons
 Dipole moment (field-independent basis, Debye):
    X=             -0.7181    Y=             -1.7273    Z=              1.7923  Tot=              2.5906
 Quadrupole moment (field-independent basis, Debye-Ang):
   XX=            -87.7992   YY=            -71.7742   ZZ=            -77.6397
   XY=             11.4745   XZ=             -7.1667   YZ=              2.2429
 Traceless Quadrupole moment (field-independent basis, Debye-Ang):
   XX=             -8.7282   YY=              7.2968   ZZ=              1.4314
   XY=             11.4745   XZ=             -7.1667   YZ=              2.2429
 Octapole moment (field-independent basis, Debye-Ang**2):
  XXX=            -16.4673  YYY=              0.1960  ZZZ=             -0.0761  XYY=              5.9671
  XXY=            -17.2256  XXZ=             32.9589  XZZ=             -9.9387  YZZ=             -5.2172
  YYZ=              5.4748  XYZ=              3.0348
 Hexadecapole moment (field-independent basis, Debye-Ang**3):
 XXXX=          -3463.1020 YYYY=           -524.4652 ZZZZ=           -277.0346 XXXY=            104.9515
 XXXZ=            -89.9068 YYYX=              6.6178 YYYZ=              5.0877 ZZZX=              5.9586
 ZZZY=              0.0891 XXYY=           -663.5179 XXZZ=           -615.0744 YYZZ=           -143.7486
 XXYZ=             17.0328 YYXZ=             -0.2161 ZZXY=             -1.7889
 N-N= 7.339035448708D+02 E-N=-3.673861293016D+03  KE= 9.346699591400D+02
 Entering OneElI...
 OneElI was handed  2147394515 working-precision words.
 Calculate electrostatic properties
    NBasis =   204  MinDer = 0  MaxDer = 0
    NGrid  =    22  NMatD  =   1
 Requested accuracy = 0.1000D-12
 PrtBox:  NBox=     1 Levels=  1 BoxLen=   32.45 SMaxX=       16.93
          Shift=            9.668944            3.281574            3.569525
 Box      1 Number                   0 centers from      1 to     69:
 ShPair: Thresh= 1.00D-13 NBox=     1 BxSize= 3.24D+01 RnKept= 1.71D+01
         NSMCal=                 2415 NSMKep=                1949
 PrsmSu:  NPrtUS=   4 ThrOK=T IAlg=1 NPAlg=1 LenDen=           0.
 Prism:   IPart=     0 DynPar=F LinDyn=F Incr=         107.
 PRISM was handed   536754428 working-precision words and  1949 shell-pairs
 PRISM was handed   536754428 working-precision words and  1949 shell-pairs
 PRISM was handed   536754428 working-precision words and  1949 shell-pairs
 PRISM was handed   536754428 working-precision words and  1949 shell-pairs
 IPart=  2 NShTot=       10582 NBatch=         481 AvBLen=        22.0
 IPart=  1 NShTot=       10802 NBatch=         491 AvBLen=        22.0
 IPart=  3 NShTot=       10384 NBatch=         472 AvBLen=        22.0
 IPart=  0 NShTot=       11110 NBatch=         505 AvBLen=        22.0
 PrSmSu:  NxtVal=            429.
 --------------------------------------------------------
       Center         ----      EFG at Nuclei      ----
                      3XX-RR        3YY-RR        3ZZ-RR
 --------------------------------------------------------
     1   Atom       -0.255972      0.115652      0.140320
     2   Atom        0.009197      0.009941     -0.019138
     3   Atom        0.155330     -0.294020      0.138690
     4   Atom        0.099235      0.047433     -0.146668
     5   Atom       -0.038940     -0.004584      0.043524
     6   Atom        0.847511     -0.752057     -0.095454
     7   Atom       -0.158916      0.040551      0.118365
     8   Atom        0.153247     -0.305898      0.152651
     9   Atom        0.142839      0.106381     -0.249220
    10   Atom        0.159728      0.129399     -0.289128
    11   Atom       -2.163926      0.517349      1.646578
    12   Atom       -0.150422      0.211523     -0.061101
    13   Atom        0.137048      0.142646     -0.279694
    14   Atom       -0.193102      0.033589      0.159513
    15   Atom        0.132698      0.102243     -0.234940
    16   Atom        0.117807      0.175666     -0.293472
    17   Atom        0.149025     -0.303020      0.153995
    18   Atom        0.064976      0.037702     -0.102679
    19   Atom       -0.066998      0.132875     -0.065877
    20   Atom        0.114875     -0.208907      0.094032
    21   Atom       -0.097185      0.126437     -0.029252
    22   Atom        0.176658     -0.079685     -0.096973
 --------------------------------------------------------
                        XY            XZ            YZ
 --------------------------------------------------------
     1   Atom        0.139849     -0.079740      0.029876
     2   Atom       -0.027909      0.046345      0.009438
     3   Atom       -0.002108      0.008654      0.096758
     4   Atom       -0.083189     -0.125880     -0.183678
     5   Atom       -0.205785     -0.277389     -0.350470
     6   Atom       -0.371688     -1.064567      0.305739
     7   Atom       -0.186362     -0.138742     -0.084499
     8   Atom        0.027087     -0.000305     -0.099986
     9   Atom       -0.046545      0.116723      0.079430
    10   Atom       -0.013935      0.143769      0.104614
    11   Atom        2.305179     -0.591368      0.387129
    12   Atom        0.261160      0.049105      0.148808
    13   Atom       -0.021321      0.135212      0.105143
    14   Atom        0.201590     -0.061426      0.027555
    15   Atom       -0.053239      0.103950      0.076871
    16   Atom       -0.055088      0.108641      0.099780
    17   Atom        0.034053     -0.000115     -0.102790
    18   Atom        0.096765     -0.144247      0.181237
    19   Atom       -0.096724      0.201699     -0.012748
    20   Atom        0.110504      0.054089     -0.152442
    21   Atom        0.487647      0.467662      0.547689
    22   Atom        0.113354     -0.058128      0.329387
 --------------------------------------------------------


 ---------------------------------------------------------------------------------
              Nuclear Quadrupole Coupling Constant in Principal Axis System
 ---------------------------------------------------------------------------------

       Atom             a.u.   MegaHertz   Gauss  10(-4) cm-1        Axes

              Baa    -3.5851   -68.781   -24.543   -22.943  0.8585 -0.4950  0.1337
    11 Cl(35) Bbb     1.7277    33.146    11.827    11.056 -0.2738 -0.2222  0.9358
              Bcc     1.8575    35.635    12.715    11.887  0.4335  0.8400  0.3263
 
              Baa    -0.5349     2.569     0.917     0.857 -0.6230 -0.1725  0.7630
    21 N(14)  Bbb    -0.4775     2.293     0.818     0.765 -0.5845  0.7508 -0.3075
              Bcc     1.0125    -4.862    -1.735    -1.622  0.5198  0.6376  0.5686
 

 ---------------------------------------------------------------------------------

 No NMR shielding tensors so no spin-rotation constants.
 Leave Link  601 at Wed Nov 29 18:24:58 2017, MaxMem=  2147483648 cpu:         0.6
 FitSet:  NAtFit=    22 NAtPot=    22 NAtFrz=     0 MDM=    26 TotChg=   0.00000
 Merz-Kollman atomic radii used.
 Atom Element Radius
    1     1    1.20
    2     6    1.50
    3     1    1.20
    4     1    1.20
    5     6    1.50
    6     8    1.40
    7     1    1.20
    8     1    1.20
    9     6    1.50
   10     6    1.50
   11    17    1.70
   12     6    1.50
   13     6    1.50
   14     1    1.20
   15     6    1.50
   16     6    1.50
   17     1    1.20
   18     1    1.20
   19     6    1.50
   20     1    1.20
   21     7    1.50
   22     1    1.20
 Generate VDW surfaces: Layer= 4 Dens= 6 Start= 1.400 Inc= 0.200

 **********************************************************************

            Electrostatic Properties Using The SCF Density

 **********************************************************************

       Atomic Center    1 is at  -5.116585 -0.140999  1.106764
       Atomic Center    2 is at  -4.112312 -0.484549  1.309473
       Atomic Center    3 is at  -4.127441 -1.544113  1.536749
       Atomic Center    4 is at  -3.739701  0.048372  2.178883
       Atomic Center    5 is at  -3.235311 -0.154423  0.120769
       Atomic Center    6 is at  -3.453884  0.794127 -0.583883
       Atomic Center    7 is at   3.150423  1.858693  0.731014
       Atomic Center    8 is at   1.022574  3.062622  0.389568
       Atomic Center    9 is at   2.282973  1.342955  0.365396
       Atomic Center   10 is at   1.082121  2.011565  0.171572
       Atomic Center   11 is at   3.844326 -0.867001  0.307223
       Atomic Center   12 is at   2.345059 -0.003617  0.074274
       Atomic Center   13 is at  -0.029903  1.341900 -0.302206
       Atomic Center   14 is at  -0.955753  1.866457 -0.452286
       Atomic Center   15 is at   1.238681 -0.688526 -0.401529
       Atomic Center   16 is at   0.040126 -0.018794 -0.591205
       Atomic Center   17 is at   1.321486 -1.736534 -0.624284
       Atomic Center   18 is at  -1.657682 -0.202953 -1.888911
       Atomic Center   19 is at  -1.182246 -0.761348 -1.097311
       Atomic Center   20 is at  -0.886532 -1.721740 -1.502316
       Atomic Center   21 is at  -2.187774 -0.991075 -0.076952
       Atomic Center   22 is at  -1.993974 -1.677258  0.616362
      ESP Fit Center   23 is at  -5.536585  0.586462  2.561687
      ESP Fit Center   24 is at  -5.844046  0.279001  2.561687
      ESP Fit Center   25 is at  -5.956585 -0.140999  2.561687
      ESP Fit Center   26 is at  -5.844046 -0.560999  2.561687
      ESP Fit Center   27 is at  -5.441680  1.001592  2.294703
      ESP Fit Center   28 is at  -5.832478  0.806997  2.294703
      ESP Fit Center   29 is at  -6.126591  0.484371  2.294703
      ESP Fit Center   30 is at  -6.284297  0.077284  2.294703
      ESP Fit Center   31 is at  -6.284297 -0.359282  2.294703
      ESP Fit Center   32 is at  -6.126591 -0.766368  2.294703
      ESP Fit Center   33 is at  -5.007858  1.309856  1.946764
      ESP Fit Center   34 is at  -5.440336  1.277446  1.946764
      ESP Fit Center   35 is at  -5.844046  1.119001  1.946764
      ESP Fit Center   36 is at  -6.183119  0.848600  1.946764
      ESP Fit Center   37 is at  -6.427425  0.490268  1.946764
      ESP Fit Center   38 is at  -6.555257  0.075846  1.946764
      ESP Fit Center   39 is at  -6.555257 -0.357844  1.946764
      ESP Fit Center   40 is at  -6.427425 -0.772266  1.946764
      ESP Fit Center   41 is at  -6.183119 -1.130598  1.946764
      ESP Fit Center   42 is at  -5.116585  1.481756  1.541580
      ESP Fit Center   43 is at  -5.536585  1.426462  1.541580
      ESP Fit Center   44 is at  -5.927963  1.264348  1.541580
      ESP Fit Center   45 is at  -6.264046  1.006462  1.541580
      ESP Fit Center   46 is at  -6.521932  0.670379  1.541580
      ESP Fit Center   47 is at  -6.684046  0.279001  1.541580
      ESP Fit Center   48 is at  -6.739340 -0.140999  1.541580
      ESP Fit Center   49 is at  -6.684046 -0.560999  1.541580
      ESP Fit Center   50 is at  -6.521932 -0.952377  1.541580
      ESP Fit Center   51 is at  -6.264046 -1.288460  1.541580
      ESP Fit Center   52 is at  -5.927963 -1.546346  1.541580
      ESP Fit Center   53 is at  -5.011097  1.535686  1.106764
      ESP Fit Center   54 is at  -5.431386  1.509244  1.106764
      ESP Fit Center   55 is at  -5.831894  1.379111  1.106764
      ESP Fit Center   56 is at  -6.187457  1.153463  1.106764
      ESP Fit Center   57 is at  -6.475734  0.846480  1.106764
      ESP Fit Center   58 is at  -6.678609  0.477450  1.106764
      ESP Fit Center   59 is at  -6.783338  0.069561  1.106764
      ESP Fit Center   60 is at  -6.783338 -0.351559  1.106764
      ESP Fit Center   61 is at  -6.678609 -0.759448  1.106764
      ESP Fit Center   62 is at  -6.475734 -1.128478  1.106764
      ESP Fit Center   63 is at  -6.187457 -1.435461  1.106764
      ESP Fit Center   64 is at  -5.116585  1.481756  0.671948
      ESP Fit Center   65 is at  -5.536585  1.426462  0.671948
      ESP Fit Center   66 is at  -5.927963  1.264348  0.671948
      ESP Fit Center   67 is at  -6.264046  1.006462  0.671948
      ESP Fit Center   68 is at  -6.521932  0.670379  0.671948
      ESP Fit Center   69 is at  -6.684046  0.279001  0.671948
      ESP Fit Center   70 is at  -6.739340 -0.140999  0.671948
      ESP Fit Center   71 is at  -6.684046 -0.560999  0.671948
      ESP Fit Center   72 is at  -6.521932 -0.952377  0.671948
      ESP Fit Center   73 is at  -6.264046 -1.288460  0.671948
      ESP Fit Center   74 is at  -5.927963 -1.546346  0.671948
      ESP Fit Center   75 is at  -5.440336  1.277446  0.266764
      ESP Fit Center   76 is at  -5.844046  1.119001  0.266764
      ESP Fit Center   77 is at  -6.183119  0.848600  0.266764
      ESP Fit Center   78 is at  -6.427425  0.490268  0.266764
      ESP Fit Center   79 is at  -6.555257  0.075846  0.266764
      ESP Fit Center   80 is at  -6.555257 -0.357844  0.266764
      ESP Fit Center   81 is at  -6.427425 -0.772266  0.266764
      ESP Fit Center   82 is at  -6.183119 -1.130598  0.266764
      ESP Fit Center   83 is at  -5.844046 -1.400999  0.266764
      ESP Fit Center   84 is at  -5.441680  1.001592 -0.081175
      ESP Fit Center   85 is at  -5.832478  0.806997 -0.081175
      ESP Fit Center   86 is at  -6.126591  0.484371 -0.081175
      ESP Fit Center   87 is at  -6.284297  0.077284 -0.081175
      ESP Fit Center   88 is at  -6.284297 -0.359282 -0.081175
      ESP Fit Center   89 is at  -6.126591 -0.766368 -0.081175
      ESP Fit Center   90 is at  -5.832478 -1.088995 -0.081175
      ESP Fit Center   91 is at  -5.536585  0.586462 -0.348159
      ESP Fit Center   92 is at  -5.844046  0.279001 -0.348159
      ESP Fit Center   93 is at  -5.956585 -0.140999 -0.348159
      ESP Fit Center   94 is at  -5.844046 -0.560999 -0.348159
      ESP Fit Center   95 is at  -5.536585 -0.868460 -0.348159
      ESP Fit Center   96 is at  -5.333993  0.235563 -0.515991
      ESP Fit Center   97 is at  -5.551401 -0.140999 -0.515991
      ESP Fit Center   98 is at  -5.333993 -0.517561 -0.515991
      ESP Fit Center   99 is at  -4.808280 -0.886367  3.249620
      ESP Fit Center  100 is at  -4.514130 -1.180517  3.249620
      ESP Fit Center  101 is at  -4.112312 -1.288184  3.249620
      ESP Fit Center  102 is at  -5.259144 -0.270169  3.055559
      ESP Fit Center  103 is at  -5.259144 -0.698929  3.055559
      ESP Fit Center  104 is at  -5.104258 -1.098736  3.055559
      ESP Fit Center  105 is at  -5.361510  0.318262  2.794397
      ESP Fit Center  106 is at  -5.537086 -0.066197  2.794397
      ESP Fit Center  107 is at  -5.597236 -0.484549  2.794397
      ESP Fit Center  108 is at  -5.537086 -0.902900  2.794397
      ESP Fit Center  109 is at  -5.361510 -1.287360  2.794397
      ESP Fit Center  110 is at  -2.863114 -1.287360  2.794397
      ESP Fit Center  111 is at  -5.807660 -0.902415  2.476170
      ESP Fit Center  112 is at  -5.658394 -1.295996  2.476170
      ESP Fit Center  113 is at  -2.566229 -1.295996  2.476170
      ESP Fit Center  114 is at  -5.774741 -1.484799  2.113108
      ESP Fit Center  115 is at  -2.217524 -0.901623  2.113108
      ESP Fit Center  116 is at  -4.628568  1.509350  1.719163
      ESP Fit Center  117 is at  -3.702622  1.575100  1.309473
      ESP Fit Center  118 is at  -4.112312  1.615451  1.309473
      ESP Fit Center  119 is at  -4.522002  1.575100  1.309473
      ESP Fit Center  120 is at  -5.858398 -1.651246  1.309473
      ESP Fit Center  121 is at  -4.628568  1.509350  0.899783
      ESP Fit Center  122 is at  -5.675087 -1.826148  0.899783
      ESP Fit Center  123 is at  -5.520850 -1.818787  0.505838
      ESP Fit Center  124 is at  -5.419276 -1.642418  0.142775
      ESP Fit Center  125 is at  -5.104202 -1.921550  0.142775
      ESP Fit Center  126 is at  -5.361510 -1.287360 -0.175451
      ESP Fit Center  127 is at  -5.084731 -1.606780 -0.175451
      ESP Fit Center  128 is at  -4.729172 -1.835284 -0.175451
      ESP Fit Center  129 is at  -4.323639 -1.954359 -0.175451
      ESP Fit Center  130 is at  -5.104258 -1.098736 -0.436613
      ESP Fit Center  131 is at  -4.127441 -1.544113  3.216749
      ESP Fit Center  132 is at  -3.692625 -1.544113  3.159504
      ESP Fit Center  133 is at  -4.562257 -1.544113  3.159504
      ESP Fit Center  134 is at  -4.344849 -1.920675  3.159504
      ESP Fit Center  135 is at  -3.910033 -1.920675  3.159504
      ESP Fit Center  136 is at  -3.287441 -1.544113  2.991672
      ESP Fit Center  137 is at  -4.967441 -1.544113  2.991672
      ESP Fit Center  138 is at  -4.854902 -1.964113  2.991672
      ESP Fit Center  139 is at  -4.547441 -2.271574  2.991672
      ESP Fit Center  140 is at  -4.127441 -2.384113  2.991672
      ESP Fit Center  141 is at  -3.707441 -2.271574  2.991672
      ESP Fit Center  142 is at  -3.399980 -1.964113  2.991672
      ESP Fit Center  143 is at  -2.939502 -1.544113  2.724688
      ESP Fit Center  144 is at  -5.295153 -1.762396  2.724688
      ESP Fit Center  145 is at  -5.137447 -2.169482  2.724688
      ESP Fit Center  146 is at  -4.843334 -2.492109  2.724688
      ESP Fit Center  147 is at  -4.452536 -2.686703  2.724688
      ESP Fit Center  148 is at  -4.017832 -2.726985  2.724688
      ESP Fit Center  149 is at  -3.597931 -2.607513  2.724688
      ESP Fit Center  150 is at  -3.249543 -2.344423  2.724688
      ESP Fit Center  151 is at  -3.019720 -1.973246  2.724688
      ESP Fit Center  152 is at  -5.566113 -1.760958  2.376749
      ESP Fit Center  153 is at  -5.438281 -2.175380  2.376749
      ESP Fit Center  154 is at  -5.193975 -2.533712  2.376749
      ESP Fit Center  155 is at  -4.854902 -2.804113  2.376749
      ESP Fit Center  156 is at  -4.451192 -2.962558  2.376749
      ESP Fit Center  157 is at  -4.018714 -2.994967  2.376749
      ESP Fit Center  158 is at  -3.595898 -2.898462  2.376749
      ESP Fit Center  159 is at  -3.220312 -2.681617  2.376749
      ESP Fit Center  160 is at  -2.925327 -2.363700  2.376749
      ESP Fit Center  161 is at  -2.737156 -1.972959  2.376749
      ESP Fit Center  162 is at  -5.694902 -1.964113  1.971565
      ESP Fit Center  163 is at  -5.532788 -2.355491  1.971565
      ESP Fit Center  164 is at  -5.274902 -2.691574  1.971565
      ESP Fit Center  165 is at  -4.938819 -2.949460  1.971565
      ESP Fit Center  166 is at  -4.547441 -3.111574  1.971565
      ESP Fit Center  167 is at  -4.127441 -3.166868  1.971565
      ESP Fit Center  168 is at  -3.707441 -3.111574  1.971565
      ESP Fit Center  169 is at  -3.316063 -2.949460  1.971565
      ESP Fit Center  170 is at  -2.979980 -2.691574  1.971565
      ESP Fit Center  171 is at  -2.722094 -2.355491  1.971565
      ESP Fit Center  172 is at  -5.794194 -1.754673  1.536749
      ESP Fit Center  173 is at  -5.689465 -2.162562  1.536749
      ESP Fit Center  174 is at  -5.486590 -2.531592  1.536749
      ESP Fit Center  175 is at  -5.198313 -2.838575  1.536749
      ESP Fit Center  176 is at  -4.842750 -3.064222  1.536749
      ESP Fit Center  177 is at  -4.442242 -3.194356  1.536749
      ESP Fit Center  178 is at  -4.021953 -3.220798  1.536749
      ESP Fit Center  179 is at  -3.608292 -3.141888  1.536749
      ESP Fit Center  180 is at  -3.227252 -2.962584  1.536749
      ESP Fit Center  181 is at  -5.694902 -1.964113  1.101933
      ESP Fit Center  182 is at  -5.532788 -2.355491  1.101933
      ESP Fit Center  183 is at  -5.274902 -2.691574  1.101933
      ESP Fit Center  184 is at  -4.938819 -2.949460  1.101933
      ESP Fit Center  185 is at  -4.547441 -3.111574  1.101933
      ESP Fit Center  186 is at  -4.127441 -3.166868  1.101933
      ESP Fit Center  187 is at  -3.707441 -3.111574  1.101933
      ESP Fit Center  188 is at  -3.316063 -2.949460  1.101933
      ESP Fit Center  189 is at  -5.438281 -2.175380  0.696749
      ESP Fit Center  190 is at  -5.193975 -2.533712  0.696749
      ESP Fit Center  191 is at  -4.854902 -2.804113  0.696749
      ESP Fit Center  192 is at  -4.451192 -2.962558  0.696749
      ESP Fit Center  193 is at  -4.018714 -2.994967  0.696749
      ESP Fit Center  194 is at  -3.595898 -2.898462  0.696749
      ESP Fit Center  195 is at  -5.137447 -2.169482  0.348810
      ESP Fit Center  196 is at  -4.843334 -2.492109  0.348810
      ESP Fit Center  197 is at  -4.452536 -2.686703  0.348810
      ESP Fit Center  198 is at  -4.017832 -2.726985  0.348810
      ESP Fit Center  199 is at  -3.597931 -2.607513  0.348810
      ESP Fit Center  200 is at  -4.547441 -2.271574  0.081826
      ESP Fit Center  201 is at  -4.127441 -2.384113  0.081826
      ESP Fit Center  202 is at  -3.739701  0.048372  3.858883
      ESP Fit Center  203 is at  -3.304885  0.048372  3.801638
      ESP Fit Center  204 is at  -3.522293  0.424934  3.801638
      ESP Fit Center  205 is at  -3.957109  0.424934  3.801638
      ESP Fit Center  206 is at  -4.174517  0.048372  3.801638
      ESP Fit Center  207 is at  -3.957109 -0.328190  3.801638
      ESP Fit Center  208 is at  -3.522293 -0.328190  3.801638
      ESP Fit Center  209 is at  -2.899701  0.048372  3.633806
      ESP Fit Center  210 is at  -3.012240  0.468372  3.633806
      ESP Fit Center  211 is at  -3.319701  0.775833  3.633806
      ESP Fit Center  212 is at  -3.739701  0.888372  3.633806
      ESP Fit Center  213 is at  -4.159701  0.775833  3.633806
      ESP Fit Center  214 is at  -4.467162  0.468372  3.633806
      ESP Fit Center  215 is at  -4.579701  0.048372  3.633806
      ESP Fit Center  216 is at  -4.467162 -0.371628  3.633806
      ESP Fit Center  217 is at  -4.159701 -0.679089  3.633806
      ESP Fit Center  218 is at  -3.739701 -0.791628  3.633806
      ESP Fit Center  219 is at  -3.319701 -0.679089  3.633806
      ESP Fit Center  220 is at  -3.012240 -0.371628  3.633806
      ESP Fit Center  221 is at  -2.551762  0.048372  3.366822
      ESP Fit Center  222 is at  -2.631980  0.477505  3.366822
      ESP Fit Center  223 is at  -2.861803  0.848682  3.366822
      ESP Fit Center  224 is at  -3.210191  1.111772  3.366822
      ESP Fit Center  225 is at  -3.630092  1.231244  3.366822
      ESP Fit Center  226 is at  -4.064796  1.190963  3.366822
      ESP Fit Center  227 is at  -4.455594  0.996368  3.366822
      ESP Fit Center  228 is at  -4.749707  0.673742  3.366822
      ESP Fit Center  229 is at  -4.907413  0.266655  3.366822
      ESP Fit Center  230 is at  -4.907413 -0.169911  3.366822
      ESP Fit Center  231 is at  -4.749707 -0.576997  3.366822
      ESP Fit Center  232 is at  -4.455594 -0.899624  3.366822
      ESP Fit Center  233 is at  -4.064796 -1.094218  3.366822
      ESP Fit Center  234 is at  -3.630092 -1.134500  3.366822
      ESP Fit Center  235 is at  -3.210191 -1.015028  3.366822
      ESP Fit Center  236 is at  -2.861803 -0.751938  3.366822
      ESP Fit Center  237 is at  -2.631980 -0.380761  3.366822
      ESP Fit Center  238 is at  -2.284778  0.048372  3.018883
      ESP Fit Center  239 is at  -2.349416  0.477218  3.018883
      ESP Fit Center  240 is at  -2.537587  0.867959  3.018883
      ESP Fit Center  241 is at  -2.832571  1.185876  3.018883
      ESP Fit Center  242 is at  -3.208158  1.402721  3.018883
      ESP Fit Center  243 is at  -3.630974  1.499226  3.018883
      ESP Fit Center  244 is at  -4.063452  1.466817  3.018883
      ESP Fit Center  245 is at  -4.467162  1.308372  3.018883
      ESP Fit Center  246 is at  -4.806235  1.037971  3.018883
      ESP Fit Center  247 is at  -5.050541  0.679639  3.018883
      ESP Fit Center  248 is at  -5.178373  0.265217  3.018883
      ESP Fit Center  249 is at  -3.208158 -1.305977  3.018883
      ESP Fit Center  250 is at  -2.832571 -1.089132  3.018883
      ESP Fit Center  251 is at  -2.537587 -0.771215  3.018883
      ESP Fit Center  252 is at  -2.349416 -0.380474  3.018883
      ESP Fit Center  253 is at  -2.116946  0.048372  2.613699
      ESP Fit Center  254 is at  -2.172240  0.468372  2.613699
      ESP Fit Center  255 is at  -2.334354  0.859750  2.613699
      ESP Fit Center  256 is at  -2.592240  1.195833  2.613699
      ESP Fit Center  257 is at  -2.928323  1.453719  2.613699
      ESP Fit Center  258 is at  -3.319701  1.615833  2.613699
      ESP Fit Center  259 is at  -3.739701  1.671127  2.613699
      ESP Fit Center  260 is at  -4.159701  1.615833  2.613699
      ESP Fit Center  261 is at  -4.551079  1.453719  2.613699
      ESP Fit Center  262 is at  -4.887162  1.195833  2.613699
      ESP Fit Center  263 is at  -5.145048  0.859750  2.613699
      ESP Fit Center  264 is at  -2.334354 -0.763006  2.613699
      ESP Fit Center  265 is at  -2.172240 -0.371628  2.613699
      ESP Fit Center  266 is at  -2.059701  0.048372  2.178883
      ESP Fit Center  267 is at  -2.112481  0.466171  2.178883
      ESP Fit Center  268 is at  -2.267506  0.857718  2.178883
      ESP Fit Center  269 is at  -2.515034  1.198411  2.178883
      ESP Fit Center  270 is at  -2.839512  1.466843  2.178883
      ESP Fit Center  271 is at  -3.220552  1.646147  2.178883
      ESP Fit Center  272 is at  -3.634213  1.725057  2.178883
      ESP Fit Center  273 is at  -4.054502  1.698615  2.178883
      ESP Fit Center  274 is at  -4.455010  1.568482  2.178883
      ESP Fit Center  275 is at  -4.810573  1.342834  2.178883
      ESP Fit Center  276 is at  -2.112481 -0.369427  2.178883
      ESP Fit Center  277 is at  -2.334354  0.859750  1.744067
      ESP Fit Center  278 is at  -2.592240  1.195833  1.744067
      ESP Fit Center  279 is at  -2.928323  1.453719  1.744067
      ESP Fit Center  280 is at  -3.319701  1.615833  1.744067
      ESP Fit Center  281 is at  -3.739701  1.671127  1.744067
      ESP Fit Center  282 is at  -4.159701  1.615833  1.744067
      ESP Fit Center  283 is at  -2.068613 -0.154423  1.866855
      ESP Fit Center  284 is at  -1.810537  0.263929  1.605693
      ESP Fit Center  285 is at  -1.986113  0.648388  1.605693
      ESP Fit Center  286 is at  -2.262892  0.967808  1.605693
      ESP Fit Center  287 is at  -2.618451  1.196312  1.605693
      ESP Fit Center  288 is at  -1.689228  0.657024  1.287466
      ESP Fit Center  289 is at  -1.928347  1.003446  1.287466
      ESP Fit Center  290 is at  -2.243421  1.282578  1.287466
      ESP Fit Center  291 is at  -2.616140  1.478196  1.287466
      ESP Fit Center  292 is at  -3.024844  1.578932  1.287466
      ESP Fit Center  293 is at  -3.445778  1.578932  1.287466
      ESP Fit Center  294 is at  -1.979286  1.324284  0.924404
      ESP Fit Center  295 is at  -2.326530  1.559720  0.924404
      ESP Fit Center  296 is at  -4.142368 -2.003585 -0.288921
      ESP Fit Center  297 is at  -5.164085 -0.364190 -0.682866
      ESP Fit Center  298 is at  -5.073897 -0.773915 -0.682866
      ESP Fit Center  299 is at  -4.897740 -1.154673 -0.682866
      ESP Fit Center  300 is at  -4.643849 -1.488661 -0.682866
      ESP Fit Center  301 is at  -4.324096 -1.760261 -0.682866
      ESP Fit Center  302 is at  -3.953433 -1.956774 -0.682866
      ESP Fit Center  303 is at  -4.930659 -0.572289 -1.045929
      ESP Fit Center  304 is at  -4.781393 -0.965870 -1.045929
      ESP Fit Center  305 is at  -4.542275 -1.312292 -1.045929
      ESP Fit Center  306 is at  -4.227201 -1.591424 -1.045929
      ESP Fit Center  307 is at  -4.660085 -0.572774 -1.364155
      ESP Fit Center  308 is at  -4.484509 -0.957234 -1.364155
      ESP Fit Center  309 is at  -4.207730 -1.276654 -1.364155
      ESP Fit Center  310 is at  -3.852171 -1.505158 -1.364155
      ESP Fit Center  311 is at  -4.227257 -0.768610 -1.625317
      ESP Fit Center  312 is at  -3.938403 -1.085468 -1.625317
      ESP Fit Center  313 is at  -3.637129 -0.850391 -1.819378
      ESP Fit Center  314 is at  -2.940367  1.825408  1.001790
      ESP Fit Center  315 is at  -3.347585  1.941272  1.001790
      ESP Fit Center  316 is at  -3.769160  1.902207  1.001790
      ESP Fit Center  317 is at  -4.148155  1.713490  1.001790
      ESP Fit Center  318 is at  -2.500037  1.894925  0.727613
      ESP Fit Center  319 is at  -2.848805  2.119064  0.727613
      ESP Fit Center  320 is at  -3.246593  2.235865  0.727613
      ESP Fit Center  321 is at  -3.661175  2.235865  0.727613
      ESP Fit Center  322 is at  -4.058962  2.119064  0.727613
      ESP Fit Center  323 is at  -4.407730  1.894925  0.727613
      ESP Fit Center  324 is at  -4.679223  1.581605  0.727613
      ESP Fit Center  325 is at  -2.544366  2.227298  0.396117
      ESP Fit Center  326 is at  -2.929355  2.408460  0.396117
      ESP Fit Center  327 is at  -3.347303  2.488187  0.396117
      ESP Fit Center  328 is at  -3.771947  2.461471  0.396117
      ESP Fit Center  329 is at  -4.176606  2.329989  0.396117
      ESP Fit Center  330 is at  -4.535854  2.102004  0.396117
      ESP Fit Center  331 is at  -4.827117  1.791840  0.396117
      ESP Fit Center  332 is at  -5.032096  1.418985  0.396117
      ESP Fit Center  333 is at  -2.645094  2.473597  0.021790
      ESP Fit Center  334 is at  -3.039089  2.611462  0.021790
      ESP Fit Center  335 is at  -3.453884  2.658198  0.021790
      ESP Fit Center  336 is at  -3.868679  2.611462  0.021790
      ESP Fit Center  337 is at  -4.262674  2.473597  0.021790
      ESP Fit Center  338 is at  -4.616113  2.251516  0.021790
      ESP Fit Center  339 is at  -4.911273  1.956356  0.021790
      ESP Fit Center  340 is at  -5.133354  1.602917  0.021790
      ESP Fit Center  341 is at  -5.271219  1.208922  0.021790
      ESP Fit Center  342 is at  -2.540833  2.516324 -0.379007
      ESP Fit Center  343 is at  -2.932401  2.672339 -0.379007
      ESP Fit Center  344 is at  -3.348353  2.740531 -0.379007
      ESP Fit Center  345 is at  -3.769240  2.717711 -0.379007
      ESP Fit Center  346 is at  -4.175381  2.604947 -0.379007
      ESP Fit Center  347 is at  -4.547785  2.407511 -0.379007
      ESP Fit Center  348 is at  -4.869040  2.134634 -0.379007
      ESP Fit Center  349 is at  -5.124124  1.799077 -0.379007
      ESP Fit Center  350 is at  -5.301109  1.416530 -0.379007
      ESP Fit Center  351 is at  -5.391720  1.004879 -0.379007
      ESP Fit Center  352 is at  -2.540833  2.516324 -0.788759
      ESP Fit Center  353 is at  -2.932401  2.672339 -0.788759
      ESP Fit Center  354 is at  -3.348353  2.740531 -0.788759
      ESP Fit Center  355 is at  -3.769240  2.717711 -0.788759
      ESP Fit Center  356 is at  -4.175381  2.604947 -0.788759
      ESP Fit Center  357 is at  -4.547785  2.407511 -0.788759
      ESP Fit Center  358 is at  -4.869040  2.134634 -0.788759
      ESP Fit Center  359 is at  -5.124124  1.799077 -0.788759
      ESP Fit Center  360 is at  -5.301109  1.416530 -0.788759
      ESP Fit Center  361 is at  -5.391720  1.004879 -0.788759
      ESP Fit Center  362 is at  -5.391720  0.583375 -0.788759
      ESP Fit Center  363 is at  -5.301109  0.171724 -0.788759
      ESP Fit Center  364 is at  -2.645094  2.473597 -1.189556
      ESP Fit Center  365 is at  -3.039089  2.611462 -1.189556
      ESP Fit Center  366 is at  -3.453884  2.658198 -1.189556
      ESP Fit Center  367 is at  -3.868679  2.611462 -1.189556
      ESP Fit Center  368 is at  -4.262674  2.473597 -1.189556
      ESP Fit Center  369 is at  -4.616113  2.251516 -1.189556
      ESP Fit Center  370 is at  -4.911273  1.956356 -1.189556
      ESP Fit Center  371 is at  -5.133354  1.602917 -1.189556
      ESP Fit Center  372 is at  -5.271219  1.208922 -1.189556
      ESP Fit Center  373 is at  -5.317955  0.794127 -1.189556
      ESP Fit Center  374 is at  -5.271219  0.379332 -1.189556
      ESP Fit Center  375 is at  -5.133354 -0.014663 -1.189556
      ESP Fit Center  376 is at  -4.911273 -0.368102 -1.189556
      ESP Fit Center  377 is at  -2.216525  1.956084 -1.563883
      ESP Fit Center  378 is at  -2.544366  2.227298 -1.563883
      ESP Fit Center  379 is at  -2.929355  2.408460 -1.563883
      ESP Fit Center  380 is at  -3.347303  2.488187 -1.563883
      ESP Fit Center  381 is at  -3.771947  2.461471 -1.563883
      ESP Fit Center  382 is at  -4.176606  2.329989 -1.563883
      ESP Fit Center  383 is at  -4.535854  2.102004 -1.563883
      ESP Fit Center  384 is at  -4.827117  1.791840 -1.563883
      ESP Fit Center  385 is at  -5.032096  1.418985 -1.563883
      ESP Fit Center  386 is at  -5.137909  1.006869 -1.563883
      ESP Fit Center  387 is at  -5.137909  0.581385 -1.563883
      ESP Fit Center  388 is at  -5.032096  0.169269 -1.563883
      ESP Fit Center  389 is at  -4.827117 -0.203585 -1.563883
      ESP Fit Center  390 is at  -4.535854 -0.513750 -1.563883
      ESP Fit Center  391 is at  -2.228544  1.581605 -1.895379
      ESP Fit Center  392 is at  -2.500037  1.894925 -1.895379
      ESP Fit Center  393 is at  -2.848805  2.119064 -1.895379
      ESP Fit Center  394 is at  -3.246593  2.235865 -1.895379
      ESP Fit Center  395 is at  -3.661175  2.235865 -1.895379
      ESP Fit Center  396 is at  -4.058962  2.119064 -1.895379
      ESP Fit Center  397 is at  -4.407730  1.894925 -1.895379
      ESP Fit Center  398 is at  -4.679223  1.581605 -1.895379
      ESP Fit Center  399 is at  -4.851447  1.204489 -1.895379
      ESP Fit Center  400 is at  -4.910448  0.794127 -1.895379
      ESP Fit Center  401 is at  -4.851447  0.383766 -1.895379
      ESP Fit Center  402 is at  -4.679223  0.006649 -1.895379
      ESP Fit Center  403 is at  -4.407730 -0.306670 -1.895379
      ESP Fit Center  404 is at  -4.058962 -0.530810 -1.895379
      ESP Fit Center  405 is at  -3.661175 -0.647611 -1.895379
      ESP Fit Center  406 is at  -2.602502  1.570264 -2.169556
      ESP Fit Center  407 is at  -2.940367  1.825408 -2.169556
      ESP Fit Center  408 is at  -3.347585  1.941272 -2.169556
      ESP Fit Center  409 is at  -3.769160  1.902207 -2.169556
      ESP Fit Center  410 is at  -4.148155  1.713490 -2.169556
      ESP Fit Center  411 is at  -4.433384  1.400608 -2.169556
      ESP Fit Center  412 is at  -4.586327  1.005817 -2.169556
      ESP Fit Center  413 is at  -4.586327  0.582437 -2.169556
      ESP Fit Center  414 is at  -4.433384  0.187646 -2.169556
      ESP Fit Center  415 is at  -4.148155 -0.125236 -2.169556
      ESP Fit Center  416 is at  -3.769160 -0.313953 -2.169556
      ESP Fit Center  417 is at  -3.347585 -0.353018 -2.169556
      ESP Fit Center  418 is at  -2.763485  1.192729 -2.374432
      ESP Fit Center  419 is at  -3.055282  1.484526 -2.374432
      ESP Fit Center  420 is at  -3.453884  1.591331 -2.374432
      ESP Fit Center  421 is at  -3.852486  1.484526 -2.374432
      ESP Fit Center  422 is at  -4.144283  1.192729 -2.374432
      ESP Fit Center  423 is at  -4.251088  0.794127 -2.374432
      ESP Fit Center  424 is at  -4.144283  0.395525 -2.374432
      ESP Fit Center  425 is at  -3.852486  0.103728 -2.374432
      ESP Fit Center  426 is at  -3.453884 -0.003077 -2.374432
      ESP Fit Center  427 is at  -3.046377  0.794127 -2.501052
      ESP Fit Center  428 is at  -3.250130  1.147038 -2.501052
      ESP Fit Center  429 is at  -3.657637  1.147038 -2.501052
      ESP Fit Center  430 is at  -3.861391  0.794127 -2.501052
      ESP Fit Center  431 is at  -3.657637  0.441216 -2.501052
      ESP Fit Center  432 is at  -3.250130  0.441216 -2.501052
      ESP Fit Center  433 is at  -3.453884  0.794127 -2.543883
      ESP Fit Center  434 is at   3.150423  1.858693  2.411014
      ESP Fit Center  435 is at   3.585239  1.858693  2.353769
      ESP Fit Center  436 is at   3.367831  2.235255  2.353769
      ESP Fit Center  437 is at   2.933015  2.235255  2.353769
      ESP Fit Center  438 is at   3.367831  1.482131  2.353769
      ESP Fit Center  439 is at   3.990423  1.858693  2.185937
      ESP Fit Center  440 is at   3.877884  2.278693  2.185937
      ESP Fit Center  441 is at   3.570423  2.586154  2.185937
      ESP Fit Center  442 is at   3.150423  2.698693  2.185937
      ESP Fit Center  443 is at   2.730423  2.586154  2.185937
      ESP Fit Center  444 is at   3.570423  1.131232  2.185937
      ESP Fit Center  445 is at   3.877884  1.438693  2.185937
      ESP Fit Center  446 is at   4.338362  1.858693  1.918953
      ESP Fit Center  447 is at   4.258144  2.287826  1.918953
      ESP Fit Center  448 is at   4.028321  2.659003  1.918953
      ESP Fit Center  449 is at   3.679933  2.922093  1.918953
      ESP Fit Center  450 is at   3.260032  3.041565  1.918953
      ESP Fit Center  451 is at   2.825328  3.001284  1.918953
      ESP Fit Center  452 is at   2.434530  2.806689  1.918953
      ESP Fit Center  453 is at   4.028321  1.058383  1.918953
      ESP Fit Center  454 is at   4.258144  1.429560  1.918953
      ESP Fit Center  455 is at   4.605346  1.858693  1.571014
      ESP Fit Center  456 is at   4.540708  2.287539  1.571014
      ESP Fit Center  457 is at   4.352537  2.678280  1.571014
      ESP Fit Center  458 is at   4.057553  2.996197  1.571014
      ESP Fit Center  459 is at   3.681966  3.213042  1.571014
      ESP Fit Center  460 is at   3.259150  3.309547  1.571014
      ESP Fit Center  461 is at   2.826672  3.277138  1.571014
      ESP Fit Center  462 is at   2.422962  3.118693  1.571014
      ESP Fit Center  463 is at   4.540708  1.429847  1.571014
      ESP Fit Center  464 is at   4.773178  1.858693  1.165830
      ESP Fit Center  465 is at   4.717884  2.278693  1.165830
      ESP Fit Center  466 is at   4.555770  2.670071  1.165830
      ESP Fit Center  467 is at   4.297884  3.006154  1.165830
      ESP Fit Center  468 is at   3.961801  3.264040  1.165830
      ESP Fit Center  469 is at   3.570423  3.426154  1.165830
      ESP Fit Center  470 is at   3.150423  3.481448  1.165830
      ESP Fit Center  471 is at   2.730423  3.426154  1.165830
      ESP Fit Center  472 is at   4.717884  1.438693  1.165830
      ESP Fit Center  473 is at   4.830423  1.858693  0.731014
      ESP Fit Center  474 is at   4.777643  2.276492  0.731014
      ESP Fit Center  475 is at   4.622618  2.668039  0.731014
      ESP Fit Center  476 is at   4.375090  3.008732  0.731014
      ESP Fit Center  477 is at   4.050612  3.277164  0.731014
      ESP Fit Center  478 is at   3.669572  3.456468  0.731014
      ESP Fit Center  479 is at   3.255911  3.535378  0.731014
      ESP Fit Center  480 is at   2.835622  3.508936  0.731014
      ESP Fit Center  481 is at   4.777643  1.440894  0.731014
      ESP Fit Center  482 is at   4.773178  1.858693  0.296198
      ESP Fit Center  483 is at   4.717884  2.278693  0.296198
      ESP Fit Center  484 is at   4.555770  2.670071  0.296198
      ESP Fit Center  485 is at   4.297884  3.006154  0.296198
      ESP Fit Center  486 is at   3.961801  3.264040  0.296198
      ESP Fit Center  487 is at   3.570423  3.426154  0.296198
      ESP Fit Center  488 is at   3.150423  3.481448  0.296198
      ESP Fit Center  489 is at   2.730423  3.426154  0.296198
      ESP Fit Center  490 is at   4.717884  1.438693  0.296198
      ESP Fit Center  491 is at   4.605346  1.858693 -0.108986
      ESP Fit Center  492 is at   4.540708  2.287539 -0.108986
      ESP Fit Center  493 is at   4.352537  2.678280 -0.108986
      ESP Fit Center  494 is at   4.057553  2.996197 -0.108986
      ESP Fit Center  495 is at   3.681966  3.213042 -0.108986
      ESP Fit Center  496 is at   3.259150  3.309547 -0.108986
      ESP Fit Center  497 is at   4.540708  1.429847 -0.108986
      ESP Fit Center  498 is at   4.338362  1.858693 -0.456925
      ESP Fit Center  499 is at   4.258144  2.287826 -0.456925
      ESP Fit Center  500 is at   4.028321  2.659003 -0.456925
      ESP Fit Center  501 is at   3.679933  2.922093 -0.456925
      ESP Fit Center  502 is at   3.260032  3.041565 -0.456925
      ESP Fit Center  503 is at   4.258144  1.429560 -0.456925
      ESP Fit Center  504 is at   3.877884  2.278693 -0.723909
      ESP Fit Center  505 is at   1.022574  3.062622  2.069568
      ESP Fit Center  506 is at   1.457390  3.062622  2.012323
      ESP Fit Center  507 is at   1.239982  3.439184  2.012323
[...]
   D33       -3.13306   0.00000   0.00000  -0.00006  -0.00006  -3.13312
   D34        0.01646   0.00000   0.00000  -0.00005  -0.00005   0.01642
   D35        0.82104   0.00000   0.00000   0.00019   0.00019   0.82122
   D36        2.89039   0.00000   0.00000   0.00018   0.00018   2.89057
   D37       -1.27590   0.00000   0.00000   0.00019   0.00019  -1.27570
   D38       -2.32858   0.00000   0.00000   0.00017   0.00017  -2.32841
   D39       -0.25923   0.00000   0.00000   0.00016   0.00016  -0.25907
   D40        1.85766   0.00000   0.00000   0.00018   0.00018   1.85784
   D41        1.64228   0.00000   0.00000   0.00001   0.00001   1.64229
   D42       -1.27268   0.00000   0.00000  -0.00005  -0.00005  -1.27273
   D43       -0.48655   0.00000   0.00000   0.00002   0.00002  -0.48653
   D44        2.88168   0.00000   0.00000  -0.00004  -0.00004   2.88164
   D45       -2.50817   0.00000   0.00000   0.00002   0.00002  -2.50815
   D46        0.86006   0.00000   0.00000  -0.00004  -0.00004   0.86002
         Item               Value     Threshold  Converged?
 Maximum Force            0.000014     0.000450     YES
 RMS     Force            0.000003     0.000300     YES
 Maximum Displacement     0.001247     0.001800     YES
 RMS     Displacement     0.000273     0.001200     YES
 Predicted change in Energy=-1.248577D-08
 Optimization completed.
    -- Stationary point found.
                           ----------------------------
                           !   Optimized Parameters   !
                           ! (Angstroms and Degrees)  !
 --------------------------                            --------------------------
 ! Name  Definition              Value          Derivative Info.                !
 --------------------------------------------------------------------------------
 ! R1    R(1,2)                  1.0806         -DE/DX =    0.0                 !
 ! R2    R(2,3)                  1.0838         -DE/DX =    0.0                 !
 ! R3    R(2,4)                  1.0857         -DE/DX =    0.0                 !
 ! R4    R(2,5)                  1.5136         -DE/DX =    0.0                 !
 ! R5    R(5,6)                  1.2017         -DE/DX =    0.0                 !
 ! R6    R(5,21)                 1.3551         -DE/DX =    0.0                 !
 ! R7    R(7,9)                  1.0734         -DE/DX =    0.0                 !
 ! R8    R(8,10)                 1.0751         -DE/DX =    0.0                 !
 ! R9    R(9,10)                 1.388          -DE/DX =    0.0                 !
 ! R10   R(9,12)                 1.3791         -DE/DX =    0.0                 !
 ! R11   R(10,13)                1.3819         -DE/DX =    0.0                 !
 ! R12   R(11,12)                1.7457         -DE/DX =    0.0                 !
 ! R13   R(12,15)                1.3855         -DE/DX =    0.0                 !
 ! R14   R(13,14)                1.0747         -DE/DX =    0.0                 !
 ! R15   R(13,16)                1.3928         -DE/DX =    0.0                 !
 ! R16   R(15,16)                1.386          -DE/DX =    0.0                 !
 ! R17   R(15,17)                1.0746         -DE/DX =    0.0                 !
 ! R18   R(16,19)                1.5171         -DE/DX =    0.0                 !
 ! R19   R(18,19)                1.0791         -DE/DX =    0.0                 !
 ! R20   R(19,20)                1.0834         -DE/DX =    0.0                 !
 ! R21   R(19,21)                1.4509         -DE/DX =    0.0                 !
 ! R22   R(21,22)                0.9945         -DE/DX =    0.0                 !
 ! A1    A(1,2,3)              109.7059         -DE/DX =    0.0                 !
 ! A2    A(1,2,4)              108.2477         -DE/DX =    0.0                 !
 ! A3    A(1,2,5)              108.7727         -DE/DX =    0.0                 !
 ! A4    A(3,2,4)              108.4668         -DE/DX =    0.0                 !
 ! A5    A(3,2,5)              112.7062         -DE/DX =    0.0                 !
 ! A6    A(4,2,5)              108.8429         -DE/DX =    0.0                 !
 ! A7    A(2,5,6)              121.8214         -DE/DX =    0.0                 !
 ! A8    A(2,5,21)             115.3285         -DE/DX =    0.0                 !
 ! A9    A(6,5,21)             122.8458         -DE/DX =    0.0                 !
 ! A10   A(7,9,10)             121.0166         -DE/DX =    0.0                 !
 ! A11   A(7,9,12)             120.3101         -DE/DX =    0.0                 !
 ! A12   A(10,9,12)            118.673          -DE/DX =    0.0                 !
 ! A13   A(8,10,9)             119.3758         -DE/DX =    0.0                 !
 ! A14   A(8,10,13)            119.9164         -DE/DX =    0.0                 !
 ! A15   A(9,10,13)            120.7072         -DE/DX =    0.0                 !
 ! A16   A(9,12,11)            119.5651         -DE/DX =    0.0                 !
 ! A17   A(9,12,15)            121.2812         -DE/DX =    0.0                 !
 ! A18   A(11,12,15)           119.1537         -DE/DX =    0.0                 !
 ! A19   A(10,13,14)           120.3073         -DE/DX =    0.0                 !
 ! A20   A(10,13,16)           120.273          -DE/DX =    0.0                 !
 ! A21   A(14,13,16)           119.4196         -DE/DX =    0.0                 !
 ! A22   A(12,15,16)           119.912          -DE/DX =    0.0                 !
 ! A23   A(12,15,17)           119.4564         -DE/DX =    0.0                 !
 ! A24   A(16,15,17)           120.631          -DE/DX =    0.0                 !
 ! A25   A(13,16,15)           119.1532         -DE/DX =    0.0                 !
 ! A26   A(13,16,19)           120.4553         -DE/DX =    0.0                 !
 ! A27   A(15,16,19)           120.3899         -DE/DX =    0.0                 !
 ! A28   A(16,19,18)           110.2688         -DE/DX =    0.0                 !
 ! A29   A(16,19,20)           109.7946         -DE/DX =    0.0                 !
 ! A30   A(16,19,21)           113.6588         -DE/DX =    0.0                 !
 ! A31   A(18,19,20)           107.7417         -DE/DX =    0.0                 !
 ! A32   A(18,19,21)           107.007          -DE/DX =    0.0                 !
 ! A33   A(20,19,21)           108.162          -DE/DX =    0.0                 !
 ! A34   A(5,21,19)            122.724          -DE/DX =    0.0                 !
 ! A35   A(5,21,22)            118.3523         -DE/DX =    0.0                 !
 ! A36   A(19,21,22)           117.6758         -DE/DX =    0.0                 !
 ! D1    D(1,2,5,6)             29.5744         -DE/DX =    0.0                 !
 ! D2    D(1,2,5,21)          -151.1612         -DE/DX =    0.0                 !
 ! D3    D(3,2,5,6)            151.4639         -DE/DX =    0.0                 !
 ! D4    D(3,2,5,21)           -29.2717         -DE/DX =    0.0                 !
 ! D5    D(4,2,5,6)            -88.1644         -DE/DX =    0.0                 !
 ! D6    D(4,2,5,21)            91.1            -DE/DX =    0.0                 !
 ! D7    D(2,5,21,19)         -174.6667         -DE/DX =    0.0                 !
 ! D8    D(2,5,21,22)           -7.7353         -DE/DX =    0.0                 !
 ! D9    D(6,5,21,19)            4.5893         -DE/DX =    0.0                 !
 ! D10   D(6,5,21,22)          171.5208         -DE/DX =    0.0                 !
 ! D11   D(7,9,10,8)             0.1341         -DE/DX =    0.0                 !
 ! D12   D(7,9,10,13)          179.8572         -DE/DX =    0.0                 !
 ! D13   D(12,9,10,8)         -179.654          -DE/DX =    0.0                 !
 ! D14   D(12,9,10,13)           0.0692         -DE/DX =    0.0                 !
 ! D15   D(7,9,12,11)            0.1229         -DE/DX =    0.0                 !
 ! D16   D(7,9,12,15)         -179.8518         -DE/DX =    0.0                 !
 ! D17   D(10,9,12,11)         179.9125         -DE/DX =    0.0                 !
 ! D18   D(10,9,12,15)          -0.0622         -DE/DX =    0.0                 !
 ! D19   D(8,10,13,14)          -0.1211         -DE/DX =    0.0                 !
 ! D20   D(8,10,13,16)         179.7887         -DE/DX =    0.0                 !
 ! D21   D(9,10,13,14)        -179.8428         -DE/DX =    0.0                 !
 ! D22   D(9,10,13,16)           0.067          -DE/DX =    0.0                 !
 ! D23   D(9,12,15,16)          -0.0814         -DE/DX =    0.0                 !
 ! D24   D(9,12,15,17)         179.6488         -DE/DX =    0.0                 !
 ! D25   D(11,12,15,16)        179.9437         -DE/DX =    0.0                 !
 ! D26   D(11,12,15,17)         -0.3261         -DE/DX =    0.0                 !
 ! D27   D(10,13,16,15)         -0.2095         -DE/DX =    0.0                 !
 ! D28   D(10,13,16,19)        179.336          -DE/DX =    0.0                 !
 ! D29   D(14,13,16,15)        179.7011         -DE/DX =    0.0                 !
 ! D30   D(14,13,16,19)         -0.7534         -DE/DX =    0.0                 !
 ! D31   D(12,15,16,13)          0.2159         -DE/DX =    0.0                 !
 ! D32   D(12,15,16,19)       -179.3298         -DE/DX =    0.0                 !
 ! D33   D(17,15,16,13)       -179.511          -DE/DX =    0.0                 !
 ! D34   D(17,15,16,19)          0.9432         -DE/DX =    0.0                 !
 ! D35   D(13,16,19,18)         47.0421         -DE/DX =    0.0                 !
 ! D36   D(13,16,19,20)        165.6071         -DE/DX =    0.0                 !
 ! D37   D(13,16,19,21)        -73.1035         -DE/DX =    0.0                 !
 ! D38   D(15,16,19,18)       -133.4181         -DE/DX =    0.0                 !
 ! D39   D(15,16,19,20)        -14.8531         -DE/DX =    0.0                 !
 ! D40   D(15,16,19,21)        106.4363         -DE/DX =    0.0                 !
 ! D41   D(16,19,21,5)          94.0955         -DE/DX =    0.0                 !
 ! D42   D(16,19,21,22)        -72.9192         -DE/DX =    0.0                 !
 ! D43   D(18,19,21,5)         -27.8771         -DE/DX =    0.0                 !
 ! D44   D(18,19,21,22)        165.1082         -DE/DX =    0.0                 !
 ! D45   D(20,19,21,5)        -143.7075         -DE/DX =    0.0                 !
 ! D46   D(20,19,21,22)         49.2778         -DE/DX =    0.0                 !
 --------------------------------------------------------------------------------
 GradGradGradGradGradGradGradGradGradGradGradGradGradGradGradGradGradGrad

                          Input orientation:                          
 ---------------------------------------------------------------------
 Center     Atomic      Atomic             Coordinates (Angstroms)
 Number     Number       Type             X           Y           Z
 ---------------------------------------------------------------------
      1          1           0        5.116585   -0.140999   -1.106764
      2          6           0        4.112312   -0.484549   -1.309473
      3          1           0        4.127441   -1.544113   -1.536749
      4          1           0        3.739701    0.048372   -2.178883
      5          6           0        3.235311   -0.154423   -0.120769
      6          8           0        3.453884    0.794127    0.583883
      7          1           0       -3.150423    1.858693   -0.731014
      8          1           0       -1.022574    3.062622   -0.389568
      9          6           0       -2.282973    1.342955   -0.365396
     10          6           0       -1.082121    2.011565   -0.171572
     11         17           0       -3.844326   -0.867001   -0.307223
     12          6           0       -2.345059   -0.003617   -0.074274
     13          6           0        0.029903    1.341900    0.302206
     14          1           0        0.955753    1.866457    0.452286
     15          6           0       -1.238681   -0.688526    0.401529
     16          6           0       -0.040126   -0.018794    0.591205
     17          1           0       -1.321486   -1.736534    0.624284
     18          1           0        1.657682   -0.202953    1.888911
     19          6           0        1.182246   -0.761348    1.097311
     20          1           0        0.886532   -1.721740    1.502316
     21          7           0        2.187774   -0.991075    0.076952
     22          1           0        1.993974   -1.677258   -0.616362
 ---------------------------------------------------------------------
                    Distance matrix (angstroms):
                    1          2          3          4          5
     1  H    0.000000
     2  C    1.080593   0.000000
     3  H    1.769752   1.083771   0.000000
     4  H    1.755309   1.085688   1.760309   0.000000
     5  C    2.124043   1.513648   2.175347   2.128701   0.000000
     6  O    2.548985   2.377675   3.227712   2.875886   1.201689
     7  H    8.513717   7.653281   8.074379   7.269621   6.723290
     8  H    6.961812   6.308383   7.004333   5.913258   5.343334
     9  C    7.583219   6.717940   7.127457   6.421626   5.723062
    10  C    6.628127   5.874312   6.453378   5.579730   4.830559
    11  Cl   9.025756   8.028628   8.094398   7.865016   7.117850
    12  C    7.533992   6.592014   6.812137   6.438663   5.582601
    13  C    5.482565   4.753892   5.338599   4.646678   3.562658
    14  H    4.875760   4.312179   5.064371   4.240147   3.099796
    15  C    6.554704   5.621589   5.769247   5.655602   4.535931
    16  C    5.430442   4.590452   4.921727   4.686682   3.354667
    17  H    6.854999   5.901952   5.864972   6.054688   4.880838
    18  H    4.576234   4.041555   4.430978   4.576562   2.555403
    19  C    4.552121   3.801909   4.028048   4.234344   2.463159
    20  H    5.215303   4.454487   4.446455   4.982479   3.256939
    21  N    3.271352   2.425405   2.583058   2.928774   1.355144
    22  H    3.514440   2.527907   2.327342   2.909782   2.026217
                    6          7          8          9         10
     6  O    0.000000
     7  H    6.817560   0.000000
     8  H    5.111981   2.468557   0.000000
     9  C    5.840708   1.073374   2.132239   0.000000
    10  C    4.756912   2.148073   1.075076   1.388039   0.000000
    11  Cl   7.537724   2.844382   4.838492   2.706495   3.991782
    12  C    5.890442   2.132632   3.354132   1.379080   2.380218
    13  C    3.478943   3.383651   2.132403   2.407299   1.381852
    14  H    2.721740   4.273282   2.460347   3.381125   2.136161
    15  C    4.924599   3.380198   3.839746   2.409488   2.764678
    16  C    3.587339   3.866157   3.379681   2.792814   2.406229
    17  H    5.404631   4.255291   4.914178   3.374489   3.839131
    18  H    2.433846   5.850835   4.799919   4.795883   4.081201
    19  C    2.800616   5.383253   4.657766   4.309912   3.798219
    20  H    3.710041   5.839886   5.487625   4.788159   4.540381
    21  N    2.246544   6.104943   5.191959   5.062702   4.446327
    22  H    3.111217   6.243470   5.622940   5.241846   4.823651
                   11         12         13         14         15
    11  Cl   0.000000
    12  C    1.745709   0.000000
    13  C    4.501144   2.755467   0.000000
    14  H    5.575787   3.830118   1.074654   0.000000
    15  C    2.706209   1.385482   2.396205   3.368391   0.000000
    16  C    3.999821   2.399127   1.392807   2.136643   1.386020
    17  H    2.826396   2.130419   3.377387   4.265788   1.074615
    18  H    5.961213   4.462708   2.748430   2.615158   3.291961
    19  C    5.220182   3.793237   2.526606   2.715274   2.519981
    20  H    5.136733   3.985068   3.399995   3.739320   2.606874
    21  N    6.045595   4.641607   3.185894   3.134364   3.455066
    22  H    5.902358   4.682109   3.717076   3.844194   3.530404
                   16         17         18         19         20
    16  C    0.000000
    17  H    2.143270   0.000000
    18  H    2.144879   3.581423   0.000000
    19  C    1.517143   2.728262   1.079108   0.000000
    20  H    2.142159   2.376237   1.746666   1.083434   0.000000
    21  N    2.484618   3.629075   2.045808   1.450860   2.063677
    22  H    2.888994   3.540479   2.926271   2.105818   2.391067
                   21         22
    21  N    0.000000
    22  H    0.994530   0.000000
 Stoichiometry    C9H10ClNO
 Framework group  C1[X(C9H10ClNO)]
 Deg. of freedom    60
 Full point group                 C1      NOp   1
 Largest Abelian subgroup         C1      NOp   1
 Largest concise Abelian subgroup C1      NOp   1
                         Standard orientation:                         
 ---------------------------------------------------------------------
 Center     Atomic      Atomic             Coordinates (Angstroms)
 Number     Number       Type             X           Y           Z
 ---------------------------------------------------------------------
      1          1           0       -5.116585   -0.140999    1.106764
      2          6           0       -4.112312   -0.484549    1.309473
      3          1           0       -4.127441   -1.544113    1.536749
      4          1           0       -3.739701    0.048372    2.178883
      5          6           0       -3.235311   -0.154423    0.120769
      6          8           0       -3.453884    0.794127   -0.583883
      7          1           0        3.150423    1.858693    0.731014
      8          1           0        1.022574    3.062622    0.389568
      9          6           0        2.282973    1.342955    0.365396
     10          6           0        1.082121    2.011565    0.171572
     11         17           0        3.844326   -0.867001    0.307223
     12          6           0        2.345059   -0.003617    0.074274
     13          6           0       -0.029903    1.341900   -0.302206
     14          1           0       -0.955753    1.866457   -0.452286
     15          6           0        1.238681   -0.688526   -0.401529
     16          6           0        0.040126   -0.018794   -0.591205
     17          1           0        1.321486   -1.736534   -0.624284
     18          1           0       -1.657682   -0.202953   -1.888911
     19          6           0       -1.182246   -0.761348   -1.097311
     20          1           0       -0.886532   -1.721740   -1.502316
     21          7           0       -2.187774   -0.991075   -0.076952
     22          1           0       -1.993974   -1.677258    0.616362
 ---------------------------------------------------------------------
 Rotational constants (GHZ):      1.9886476      0.3539252      0.3272933

 Test job not archived.
 1\1\GINC-CSS-036\FOpt\RHF\6-31G(d)\C9H10Cl1N1O1\SONGLIN3\29-Nov-2017\0
 \\#HF/6-31G* SCF=tight Test Pop=MK iop(6/33=2) iop(6/42=6) opt # iop(6
 /50=1)\\remark line goes here\\0,1\H,5.116585,-0.140999,-1.106764\C,4.
 112312,-0.484549,-1.309473\H,4.127441,-1.544113,-1.536749\H,3.739701,0
 .048372,-2.178883\C,3.235311,-0.154423,-0.120769\O,3.453884,0.794127,0
 .583883\H,-3.150423,1.858693,-0.731014\H,-1.022574,3.062622,-0.389568\
 C,-2.282973,1.342955,-0.365396\C,-1.082121,2.011565,-0.171572\Cl,-3.84
 4326,-0.867001,-0.307223\C,-2.345059,-0.003617,-0.074274\C,0.029903,1.
 3419,0.302206\H,0.955753,1.866457,0.452286\C,-1.238681,-0.688526,0.401
 529\C,-0.040126,-0.018794,0.591205\H,-1.321486,-1.736534,0.624284\H,1.
 657682,-0.202953,1.888911\C,1.182246,-0.761348,1.097311\H,0.886532,-1.
 72174,1.502316\N,2.187774,-0.991075,0.076952\H,1.993974,-1.677258,-0.6
 16362\\Version=ES64L-G09RevD.01\State=1-A\HF=-935.4549717\RMSD=3.780e-
 09\RMSF=6.549e-06\Dipole=0.282506,-0.6795544,-0.7051312\Quadrupole=-6.
 4891714,5.4249945,1.064177,-8.5310084,-5.3282639,-1.6675111\PG=C01 [X(
 C9H10Cl1N1O1)]\\@


 LIFE IS A CONTINUAL STRUGGLE AGAINST THE TENDENCY TO PRODUCE ENTROPY.
 Job cpu time:       0 days  0 hours  0 minutes 35.8 seconds.
 File lengths (MBytes):  RWF=    134 Int=      0 D2E=      0 Chk=      5 Scr=      2
 Normal termination of Gaussian 09 at Wed Nov 29 18:25:03 2017.
