 Entering Gaussian System, Link 0=g09
 Initial command:
 /opt/software/Gaussian/g09/l1.exe "/mnt/ls15/scratch/users/songlin3/Gau-14840.inp" -scrdir="/mnt/ls15/scratch/users/songlin3/"
 Entering Link 1 = /opt/software/Gaussian/g09/l1.exe PID=     14841.
  
 Copyright (c) 1988,1990,1992,1993,1995,1998,2003,2009,2013,
            Gaussian, Inc.  All Rights Reserved.
  
 This is part of the Gaussian(R) 09 program.  It is based on
 the Gaussian(R) 03 system (copyright 2003, Gaussian, Inc.),
 the Gaussian(R) 98 system (copyright 1998, Gaussian, Inc.),
 the Gaussian(R) 94 system (copyright 1995, Gaussian, Inc.),
 the Gaussian 92(TM) system (copyright 1992, Gaussian, Inc.),
 the Gaussian 90(TM) system (copyright 1990, Gaussian, Inc.),
 the Gaussian 88(TM) system (copyright 1988, Gaussian, Inc.),
 the Gaussian 86(TM) system (copyright 1986, Carnegie Mellon
 University), and the Gaussian 82(TM) system (copyright 1983,
 Carnegie Mellon University). Gaussian is a federally registered
 trademark of Gaussian, Inc.
  
 This software contains proprietary and confidential information,
 including trade secrets, belonging to Gaussian, Inc.
  
 This software is provided under written license and may be
 used, copied, transmitted, or stored only in accord with that
 written license.
  
 The following legend is applicable only to US Government
 contracts under FAR:
  
                    RESTRICTED RIGHTS LEGEND
  
 Use, reproduction and disclosure by the US Government is
 subject to restrictions as set forth in subparagraphs (a)
 and (c) of the Commercial Computer Software - Restricted
 Rights clause in FAR 52.227-19.
  
 Gaussian, Inc.
 340 Quinnipiac St., Bldg. 40, Wallingford CT 06492
  
  
 ---------------------------------------------------------------
 Warning -- This program may not be used in any manner that
 competes with the business of Gaussian, Inc. or will provide
 assistance to any competitor of Gaussian, Inc.  The licensee
 of this program is prohibited from giving any competitor of
 Gaussian, Inc. access to this program.  By using this program,
 the user acknowledges that Gaussian, Inc. is engaged in the
 business of creating and licensing software in the field of
 computational chemistry and represents and warrants to the
 licensee that it is not a competitor of Gaussian, Inc. and that
 it will not use this program in any manner prohibited above.
 ---------------------------------------------------------------
  

 Cite this work as:
 Gaussian 09, Revision D.01,
 M. J. Frisch, G. W. Trucks, H. B. Schlegel, G. E. Scuseria, 
 M. A. Robb, J. R. Cheeseman, G. Scalmani, V. Barone, B. Mennucci, 
 G. A. Petersson, H. Nakatsuji, M. Caricato, X. Li, H. P. Hratchian, 
 A. F. Izmaylov, J. Bloino, G. Zheng, J. L. Sonnenberg, M. Hada, 
 M. Ehara, K. Toyota, R. Fukuda, J. Hasegawa, M. Ishida, T. Nakajima, 
 Y. Honda, O. Kitao, H. Nakai, T. Vreven, J. A. Montgomery, Jr., 
 J. E. Peralta, F. Ogliaro, M. Bearpark, J. J. Heyd, E. Brothers, 
 K. N. Kudin, V. N. Staroverov, T. Keith, R. Kobayashi, J. Normand, 
 K. Raghavachari, A. Rendell, J. C. Burant, S. S. Iyengar, J. Tomasi, 
 M. Cossi, N. Rega, J. M. Millam, M. Klene, J. E. Knox, J. B. Cross, 
 V. Bakken, C. Adamo, J. Jaramillo, R. Gomperts, R. E. Stratmann, 
 O. Yazyev, A. J. Austin, R. Cammi, C. Pomelli, J. W. Ochterski, 
 R. L. Martin, K. Morokuma, V. G. Zakrzewski, G. A. Voth, 
 P. Salvador, J. J. Dannenberg, S. Dapprich, A. D. Daniels, 
 O. Farkas, J. B. Foresman, J. V. Ortiz, J. Cioslowski, 
 and D. J. Fox, Gaussian, Inc., Wallingford CT, 2013.
 
 ******************************************
 Gaussian 09:  ES64L-G09RevD.01 24-Apr-2013
                29-Nov-2017 
 ******************************************
 %RWF=myrwf
 %NoSave
 %chk=opt.chk
 %NprocShared=4
 Will use up to    4 processors via shared memory.
 %Mem=16GB
 ------------------------------------------------------------
 #HF/6-31G* SCF=tight Test Pop=MK iop(6/33=2) iop(6/42=6) opt
 ------------------------------------------------------------
 1/18=20,19=15,38=1/1,3;
 2/9=110,12=2,17=6,18=5,40=1/2;
 3/5=1,6=6,7=1,11=9,16=1,25=1,30=1,71=1/1,2,3;
 4//1;
 5/5=2,32=2,38=5/2;
 6/7=2,8=2,9=2,10=2,15=8,20=1,28=1,33=2,42=6/1,2;
 7//1,2,3,16;
 1/18=20,19=15/3(2);
 2/9=110/2;
 99//99;
 2/9=110/2;
 3/5=1,6=6,7=1,11=9,16=1,25=1,30=1,71=1/1,2,3;
 4/5=5,16=3,69=1/1;
 5/5=2,32=2,38=5/2;
 7//1,2,3,16;
 1/18=20,19=15/3(-5);
 2/9=110/2;
 6/7=2,8=2,9=2,10=2,15=8,19=2,20=1,28=1,33=2,42=6/1,2;
 99/9=1/99;
 ---------------------
 remark line goes here
 ---------------------
 Symbolic Z-matrix:
 Charge =  0 Multiplicity = 1
 H                     18.483   -12.917    20.769 
 C                     18.067   -11.944    21.029 
 H                     18.723   -11.157    20.657 
 H                     17.981   -11.862    22.113 
 C                     16.663   -11.754    20.406 
 O                     16.164   -12.647    19.719 
 H                     10.847   -10.655    24.006 
 H                     11.33    -12.574    22.502 
 C                     11.62    -10.57     23.255 
 C                     11.894   -11.657    22.401 
 Cl                    12.106   -8.076     24.243 
 C                     12.372   -9.384     23.146 
 C                     12.905   -11.553    21.423 
 H                     13.115   -12.391    20.774 
 C                     13.374   -9.278     22.161 
 C                     13.641   -10.357    21.292 
 H                     13.951   -8.37      22.09 
 H                     14.405   -10.764    19.319 
 C                     14.704   -10.216    20.215 
 H                     14.742   -9.164     19.939 
 N                     16.042   -10.594    20.65 
 H                     16.562   -9.892     21.177 
 

 GradGradGradGradGradGradGradGradGradGradGradGradGradGradGradGradGradGrad
 Berny optimization.
 Initialization pass.
                           ----------------------------
                           !    Initial Parameters    !
                           ! (Angstroms and Degrees)  !
 --------------------------                            --------------------------
 ! Name  Definition              Value          Derivative Info.                !
 --------------------------------------------------------------------------------
 ! R1    R(1,2)                  1.0897         estimate D2E/DX2                !
 ! R2    R(2,3)                  1.09           estimate D2E/DX2                !
 ! R3    R(2,4)                  1.0905         estimate D2E/DX2                !
 ! R4    R(2,5)                  1.5477         estimate D2E/DX2                !
 ! R5    R(5,6)                  1.2322         estimate D2E/DX2                !
 ! R6    R(5,21)                 1.3382         estimate D2E/DX2                !
 ! R7    R(7,9)                  1.0811         estimate D2E/DX2                !
 ! R8    R(8,10)                 1.0813         estimate D2E/DX2                !
 ! R9    R(9,10)                 1.4092         estimate D2E/DX2                !
 ! R10   R(9,12)                 1.4085         estimate D2E/DX2                !
 ! R11   R(10,13)                1.4105         estimate D2E/DX2                !
 ! R12   R(11,12)                1.7277         estimate D2E/DX2                !
 ! R13   R(12,15)                1.4091         estimate D2E/DX2                !
 ! R14   R(13,14)                1.0805         estimate D2E/DX2                !
 ! R15   R(13,16)                1.4104         estimate D2E/DX2                !
 ! R16   R(15,16)                1.4109         estimate D2E/DX2                !
 ! R17   R(15,17)                1.0782         estimate D2E/DX2                !
 ! R18   R(16,19)                1.5198         estimate D2E/DX2                !
 ! R19   R(18,19)                1.092          estimate D2E/DX2                !
 ! R20   R(19,20)                1.0883         estimate D2E/DX2                !
 ! R21   R(19,21)                1.4568         estimate D2E/DX2                !
 ! R22   R(21,22)                1.0203         estimate D2E/DX2                !
 ! A1    A(1,2,3)              109.4826         estimate D2E/DX2                !
 ! A2    A(1,2,4)              109.5382         estimate D2E/DX2                !
 ! A3    A(1,2,5)              111.0933         estimate D2E/DX2                !
 ! A4    A(3,2,4)              109.416          estimate D2E/DX2                !
 ! A5    A(3,2,5)              108.6592         estimate D2E/DX2                !
 ! A6    A(4,2,5)              108.6242         estimate D2E/DX2                !
 ! A7    A(2,5,6)              120.1855         estimate D2E/DX2                !
 ! A8    A(2,5,21)             116.9995         estimate D2E/DX2                !
 ! A9    A(6,5,21)             122.8149         estimate D2E/DX2                !
 ! A10   A(7,9,10)             119.9567         estimate D2E/DX2                !
 ! A11   A(7,9,12)             120.1124         estimate D2E/DX2                !
 ! A12   A(10,9,12)            119.9188         estimate D2E/DX2                !
 ! A13   A(8,10,9)             119.7438         estimate D2E/DX2                !
 ! A14   A(8,10,13)            120.0776         estimate D2E/DX2                !
 ! A15   A(9,10,13)            120.1777         estimate D2E/DX2                !
 ! A16   A(9,12,11)            120.4059         estimate D2E/DX2                !
 ! A17   A(9,12,15)            119.8076         estimate D2E/DX2                !
 ! A18   A(11,12,15)           119.7609         estimate D2E/DX2                !
 ! A19   A(10,13,14)           119.9069         estimate D2E/DX2                !
 ! A20   A(10,13,16)           120.064          estimate D2E/DX2                !
 ! A21   A(14,13,16)           120.0291         estimate D2E/DX2                !
 ! A22   A(12,15,16)           120.5033         estimate D2E/DX2                !
 ! A23   A(12,15,17)           119.3375         estimate D2E/DX2                !
 ! A24   A(16,15,17)           120.1469         estimate D2E/DX2                !
 ! A25   A(13,16,15)           119.5072         estimate D2E/DX2                !
 ! A26   A(13,16,19)           120.6291         estimate D2E/DX2                !
 ! A27   A(15,16,19)           119.8594         estimate D2E/DX2                !
 ! A28   A(16,19,18)           110.0827         estimate D2E/DX2                !
 ! A29   A(16,19,20)           107.0874         estimate D2E/DX2                !
 ! A30   A(16,19,21)           113.9986         estimate D2E/DX2                !
 ! A31   A(18,19,20)           106.6526         estimate D2E/DX2                !
 ! A32   A(18,19,21)           111.485          estimate D2E/DX2                !
 ! A33   A(20,19,21)           107.1263         estimate D2E/DX2                !
 ! A34   A(5,21,19)            126.6322         estimate D2E/DX2                !
 ! A35   A(5,21,22)            117.007          estimate D2E/DX2                !
 ! A36   A(19,21,22)           116.3469         estimate D2E/DX2                !
 ! D1    D(1,2,5,6)              0.0119         estimate D2E/DX2                !
 ! D2    D(1,2,5,21)          -179.9106         estimate D2E/DX2                !
 ! D3    D(3,2,5,6)            120.5134         estimate D2E/DX2                !
 ! D4    D(3,2,5,21)           -59.4091         estimate D2E/DX2                !
 ! D5    D(4,2,5,6)           -120.5358         estimate D2E/DX2                !
 ! D6    D(4,2,5,21)            59.5417         estimate D2E/DX2                !
 ! D7    D(2,5,21,19)         -177.4468         estimate D2E/DX2                !
 ! D8    D(2,5,21,22)            3.9607         estimate D2E/DX2                !
 ! D9    D(6,5,21,19)            2.6329         estimate D2E/DX2                !
 ! D10   D(6,5,21,22)         -175.9596         estimate D2E/DX2                !
 ! D11   D(7,9,10,8)            -0.1164         estimate D2E/DX2                !
 ! D12   D(7,9,10,13)         -179.7541         estimate D2E/DX2                !
 ! D13   D(12,9,10,8)          178.6224         estimate D2E/DX2                !
 ! D14   D(12,9,10,13)          -1.0152         estimate D2E/DX2                !
 ! D15   D(7,9,12,11)            2.1209         estimate D2E/DX2                !
 ! D16   D(7,9,12,15)         -179.722          estimate D2E/DX2                !
 ! D17   D(10,9,12,11)        -176.616          estimate D2E/DX2                !
 ! D18   D(10,9,12,15)           1.5411         estimate D2E/DX2                !
 ! D19   D(8,10,13,14)           0.038          estimate D2E/DX2                !
 ! D20   D(8,10,13,16)        -179.9648         estimate D2E/DX2                !
 ! D21   D(9,10,13,14)         179.6744         estimate D2E/DX2                !
 ! D22   D(9,10,13,16)          -0.3284         estimate D2E/DX2                !
 ! D23   D(9,12,15,16)          -0.7333         estimate D2E/DX2                !
 ! D24   D(9,12,15,17)        -179.4594         estimate D2E/DX2                !
 ! D25   D(11,12,15,16)        177.4358         estimate D2E/DX2                !
 ! D26   D(11,12,15,17)         -1.2903         estimate D2E/DX2                !
 ! D27   D(10,13,16,15)          1.133          estimate D2E/DX2                !
 ! D28   D(10,13,16,19)       -178.1231         estimate D2E/DX2                !
 ! D29   D(14,13,16,15)       -178.8698         estimate D2E/DX2                !
 ! D30   D(14,13,16,19)          1.8742         estimate D2E/DX2                !
 ! D31   D(12,15,16,13)         -0.6042         estimate D2E/DX2                !
 ! D32   D(12,15,16,19)        178.6576         estimate D2E/DX2                !
 ! D33   D(17,15,16,13)        178.1116         estimate D2E/DX2                !
 ! D34   D(17,15,16,19)         -2.6266         estimate D2E/DX2                !
 ! D35   D(13,16,19,18)         34.3599         estimate D2E/DX2                !
 ! D36   D(13,16,19,20)        149.929          estimate D2E/DX2                !
 ! D37   D(13,16,19,21)        -91.7713         estimate D2E/DX2                !
 ! D38   D(15,16,19,18)       -144.8935         estimate D2E/DX2                !
 ! D39   D(15,16,19,20)        -29.3245         estimate D2E/DX2                !
 ! D40   D(15,16,19,21)         88.9753         estimate D2E/DX2                !
 ! D41   D(16,19,21,5)         100.2689         estimate D2E/DX2                !
 ! D42   D(16,19,21,22)        -81.1305         estimate D2E/DX2                !
 ! D43   D(18,19,21,5)         -25.1234         estimate D2E/DX2                !
 ! D44   D(18,19,21,22)        153.4772         estimate D2E/DX2                !
 ! D45   D(20,19,21,5)        -141.4536         estimate D2E/DX2                !
 ! D46   D(20,19,21,22)         37.147          estimate D2E/DX2                !
 --------------------------------------------------------------------------------
 Trust Radius=3.00D-01 FncErr=1.00D-07 GrdErr=1.00D-07
 Number of steps in this run=    114 maximum allowed number of steps=    132.
 GradGradGradGradGradGradGradGradGradGradGradGradGradGradGradGradGradGrad

                          Input orientation:                          
 ---------------------------------------------------------------------
 Center     Atomic      Atomic             Coordinates (Angstroms)
 Number     Number       Type             X           Y           Z
 ---------------------------------------------------------------------
      1          1           0       18.483000  -12.917000   20.769000
      2          6           0       18.067000  -11.944000   21.029000
      3          1           0       18.723000  -11.157000   20.657000
      4          1           0       17.981000  -11.862000   22.113000
      5          6           0       16.663000  -11.754000   20.406000
      6          8           0       16.164000  -12.647000   19.719000
      7          1           0       10.847000  -10.655000   24.006000
      8          1           0       11.330000  -12.574000   22.502000
      9          6           0       11.620000  -10.570000   23.255000
     10          6           0       11.894000  -11.657000   22.401000
     11         17           0       12.106000   -8.076000   24.243000
     12          6           0       12.372000   -9.384000   23.146000
     13          6           0       12.905000  -11.553000   21.423000
     14          1           0       13.115000  -12.391000   20.774000
     15          6           0       13.374000   -9.278000   22.161000
     16          6           0       13.641000  -10.357000   21.292000
     17          1           0       13.951000   -8.370000   22.090000
     18          1           0       14.405000  -10.764000   19.319000
     19          6           0       14.704000  -10.216000   20.215000
     20          1           0       14.742000   -9.164000   19.939000
     21          7           0       16.042000  -10.594000   20.650000
     22          1           0       16.562000   -9.892000   21.177000
 ---------------------------------------------------------------------
                    Distance matrix (angstroms):
                    1          2          3          4          5
     1  H    0.000000
     2  C    1.089672   0.000000
     3  H    1.779816   1.089995   0.000000
     4  H    1.780833   1.090493   1.779754   0.000000
     5  C    2.190146   1.547723   2.159400   2.159314   0.000000
     6  O    2.559914   2.414895   3.106191   3.106276   1.232241
     7  H    8.596703   7.915330   8.573166   7.478921   6.927745
     8  H    7.367927   6.924868   7.750378   6.700303   5.788480
     9  C    7.667423   6.957497   7.585960   6.590580   5.911895
    10  C    6.904053   6.330141   7.065888   6.097257   5.170377
    11  Cl   8.727548   7.799022   8.132444   7.306594   7.001179
    12  C    7.448257   6.593050   7.047968   6.218396   5.615797
    13  C    5.779472   5.191759   5.881556   5.131993   3.898366
    14  H    5.393712   4.978668   5.743353   5.074517   3.623465
    15  C    6.425097   5.514819   5.865531   5.282406   4.475279
    16  C    5.502008   4.709269   5.183623   4.666333   3.445154
    17  H    6.554332   5.553436   5.709014   5.332494   4.652124
    18  H    4.834045   4.210314   4.537600   4.669027   2.694482
    19  C    4.677944   3.867602   4.151290   4.129219   2.497920
    20  H    5.363673   4.469018   4.509538   4.743058   3.258286
    21  N    3.371790   2.463081   2.739485   2.740057   1.338199
    22  H    3.606568   2.549046   2.557449   2.602029   2.017842
                    6          7          8          9         10
     6  O    0.000000
     7  H    7.114557   0.000000
     8  H    5.578349   2.485531   0.000000
     9  C    6.120879   1.081090   2.160353   0.000000
    10  C    5.138689   2.162461   1.081289   1.409241   0.000000
    11  Cl   7.604471   2.879669   4.885208   2.726238   4.032551
    12  C    6.063890   2.163485   3.417104   1.408539   2.439270
    13  C    3.836865   3.422522   2.165019   2.444123   1.410468
    14  H    3.236505   4.313159   2.491124   3.421466   2.162574
    15  C    5.009753   3.418462   3.893306   2.437748   2.812053
    16  C    3.752860   3.906538   3.423435   2.825452   2.443745
    17  H    5.367657   4.304311   4.971217   3.410394   3.890031
    18  H    2.607637   5.885509   4.781549   4.825553   4.074469
    19  C    2.878780   5.425942   4.708971   4.344879   3.840726
    20  H    3.768524   5.825341   5.462491   4.766506   4.515263
    21  N    2.257533   6.185021   5.436290   5.132318   4.626216
    22  H    3.142323   6.422354   6.026821   5.403807   5.138446
                   11         12         13         14         15
    11  Cl   0.000000
    12  C    1.727724   0.000000
    13  C    4.547563   2.820883   0.000000
    14  H    5.627723   3.901344   1.080530   0.000000
    15  C    2.717968   1.409065   2.437259   3.417838   0.000000
    16  C    4.033310   2.448348   1.410416   2.163829   1.410918
    17  H    2.850591   2.153270   3.416210   4.312678   1.078162
    18  H    6.062716   4.547903   2.701729   2.535400   3.368697
    19  C    5.249189   3.836823   2.546220   2.751005   2.536860
    20  H    5.163008   3.993764   3.359188   3.709162   2.611839
    21  N    5.894240   4.600328   3.370160   3.436847   3.336645
    22  H    5.705624   4.657373   4.024063   4.276590   3.392432
                   16         17         18         19         20
    16  C    0.000000
    17  H    2.163579   0.000000
    18  H    2.154547   3.689958   0.000000
    19  C    1.519796   2.736850   1.092026   0.000000
    20  H    2.113305   2.425473   1.748705   1.088267   0.000000
    21  N    2.496625   3.375212   2.116655   1.456830   2.059228
    22  H    2.960015   3.157115   2.977448   2.117211   2.318411
                   21         22
    21  N    0.000000
    22  H    1.020261   0.000000
 Stoichiometry    C9H10ClNO
 Framework group  C1[X(C9H10ClNO)]
 Deg. of freedom    60
 Full point group                 C1      NOp   1
 Largest Abelian subgroup         C1      NOp   1
 Largest concise Abelian subgroup C1      NOp   1
                         Standard orientation:                         
 ---------------------------------------------------------------------
 Center     Atomic      Atomic             Coordinates (Angstroms)
 Number     Number       Type             X           Y           Z
 ---------------------------------------------------------------------
      1          1           0        4.924179   -0.559109   -1.551090
      2          6           0        4.064087   -1.102758   -1.161128
      3          1           0        4.405214   -1.997144   -0.639788
      4          1           0        3.410387   -1.390614   -1.985137
      5          6           0        3.255930   -0.230196   -0.170692
      6          8           0        3.618873    0.920392    0.079987
      7          1           0       -3.387242    1.561228   -0.978597
      8          1           0       -1.435141    3.093774   -0.842686
      9          6           0       -2.464014    1.219807   -0.531567
     10          6           0       -1.356899    2.088188   -0.452993
     11         17           0       -3.677350   -1.201621   -0.220315
     12          6           0       -2.357093   -0.100059   -0.051461
     13          6           0       -0.148503    1.645940    0.124602
     14          1           0        0.699290    2.313742    0.177829
     15          6           0       -1.152675   -0.536527    0.535342
     16          6           0       -0.046530    0.333969    0.632152
     17          1           0       -1.076239   -1.550989    0.892356
     18          1           0        1.706126    0.681392    1.836133
     19          6           0        1.235352   -0.142255    1.295301
     20          1           0        0.953574   -0.883844    2.040265
     21          7           0        2.171178   -0.785220    0.382515
     22          1           0        1.987644   -1.764136    0.161219
 ---------------------------------------------------------------------
 Rotational constants (GHZ):      1.7002263      0.3559002      0.3211059
 Standard basis: 6-31G(d) (6D, 7F)
 There are   204 symmetry adapted cartesian basis functions of A   symmetry.
 There are   204 symmetry adapted basis functions of A   symmetry.
   204 basis functions,   400 primitive gaussians,   204 cartesian basis functions
    48 alpha electrons       48 beta electrons
       nuclear repulsion energy       723.6774462523 Hartrees.
 NAtoms=   22 NActive=   22 NUniq=   22 SFac= 1.00D+00 NAtFMM=   60 NAOKFM=F Big=F
 Integral buffers will be    131072 words long.
 Raffenetti 1 integral format.
 Two-electron integral symmetry is turned on.
 One-electron integrals computed using PRISM.
 NBasis=   204 RedAO= T EigKep=  4.97D-04  NBF=   204
 NBsUse=   204 1.00D-06 EigRej= -1.00D+00 NBFU=   204
 ExpMin= 1.43D-01 ExpMax= 2.52D+04 ExpMxC= 3.78D+03 IAcc=1 IRadAn=         1 AccDes= 0.00D+00
 Harris functional with IExCor=  205 and IRadAn=       1 diagonalized for initial guess.
 HarFok:  IExCor=  205 AccDes= 0.00D+00 IRadAn=         1 IDoV= 1 UseB2=F ITyADJ=14
 ICtDFT=  3500011 ScaDFX=  1.000000  1.000000  1.000000  1.000000
 FoFCou: FMM=F IPFlag=           0 FMFlag=      100000 FMFlg1=           0
         NFxFlg=           0 DoJE=T BraDBF=F KetDBF=T FulRan=T
         wScrn=  0.000000 ICntrl=     500 IOpCl=  0 I1Cent=   200000004 NGrid=           0
         NMat0=    1 NMatS0=      1 NMatT0=    0 NMatD0=    1 NMtDS0=    0 NMtDT0=    0
 Petite list used in FoFCou.
 Keep R1 ints in memory in canonical form, NReq=223078128.
 Requested convergence on RMS density matrix=1.00D-08 within 128 cycles.
 Requested convergence on MAX density matrix=1.00D-06.
 Requested convergence on             energy=1.00D-06.
 No special actions if energy rises.
 SCF Done:  E(RHF) =  -935.443801158     A.U. after   15 cycles
            NFock= 15  Conv=0.56D-08     -V/T= 2.0016

 **********************************************************************

            Population analysis using the SCF density.

 **********************************************************************

 Orbital symmetries:
 BldTbl:  Degeneracy threshold= 1.00D-02
       Occupied  (A) (A) (A) (A) (A) (A) (A) (A) (A) (A) (A) (A)
                 (A) (A) (A) (A) (A) (A) (A) (A) (A) (A) (A) (A)
                 (A) (A) (A) (A) (A) (A) (A) (A) (A) (A) (A) (A)
                 (A) (A) (A) (A) (A) (A) (A) (A) (A) (A) (A) (A)
       Virtual   (A) (A) (A) (A) (A) (A) (A) (A) (A) (A) (A) (A)
                 (A) (A) (A) (A) (A) (A) (A) (A) (A) (A) (A) (A)
                 (A) (A) (A) (A) (A) (A) (A) (A) (A) (A) (A) (A)
                 (A) (A) (A) (A) (A) (A) (A) (A) (A) (A) (A) (A)
                 (A) (A) (A) (A) (A) (A) (A) (A) (A) (A) (A) (A)
                 (A) (A) (A) (A) (A) (A) (A) (A) (A) (A) (A) (A)
                 (A) (A) (A) (A) (A) (A) (A) (A) (A) (A) (A) (A)
                 (A) (A) (A) (A) (A) (A) (A) (A) (A) (A) (A) (A)
                 (A) (A) (A) (A) (A) (A) (A) (A) (A) (A) (A) (A)
                 (A) (A) (A) (A) (A) (A) (A) (A) (A) (A) (A) (A)
                 (A) (A) (A) (A) (A) (A) (A) (A) (A) (A) (A) (A)
                 (A) (A) (A) (A) (A) (A) (A) (A) (A) (A) (A) (A)
                 (A) (A) (A) (A) (A) (A) (A) (A) (A) (A) (A) (A)
 The electronic state is 1-A.
 Alpha  occ. eigenvalues -- -104.83172 -20.51619 -15.59880 -11.35309 -11.31104
 Alpha  occ. eigenvalues --  -11.28399 -11.26030 -11.25717 -11.25643 -11.25462
 Alpha  occ. eigenvalues --  -11.24799 -11.24040 -10.56526  -8.03469  -8.03131
 Alpha  occ. eigenvalues --   -8.03128  -1.36838  -1.23903  -1.18698  -1.12166
 Alpha  occ. eigenvalues --   -1.05108  -1.00548  -0.99265  -0.93731  -0.83769
 Alpha  occ. eigenvalues --   -0.80875  -0.78682  -0.70446  -0.69027  -0.65592
 Alpha  occ. eigenvalues --   -0.65225  -0.64597  -0.61756  -0.59319  -0.58728
 Alpha  occ. eigenvalues --   -0.57002  -0.56592  -0.55097  -0.53786  -0.53050
 Alpha  occ. eigenvalues --   -0.50739  -0.50060  -0.46470  -0.45625  -0.41237
 Alpha  occ. eigenvalues --   -0.39181  -0.34338  -0.33022
 Alpha virt. eigenvalues --    0.12062   0.12143   0.19311   0.20366   0.21166
 Alpha virt. eigenvalues --    0.25586   0.26232   0.27924   0.29895   0.30741
 Alpha virt. eigenvalues --    0.31078   0.31759   0.32508   0.33211   0.33868
 Alpha virt. eigenvalues --    0.38149   0.40221   0.42924   0.43484   0.45643
 Alpha virt. eigenvalues --    0.48033   0.49617   0.51631   0.57046   0.58383
 Alpha virt. eigenvalues --    0.58762   0.61604   0.63311   0.68118   0.70958
 Alpha virt. eigenvalues --    0.72993   0.73455   0.74414   0.75920   0.76411
 Alpha virt. eigenvalues --    0.76817   0.79794   0.81164   0.82296   0.82503
 Alpha virt. eigenvalues --    0.83421   0.84049   0.84357   0.87878   0.88359
 Alpha virt. eigenvalues --    0.90609   0.93496   0.94938   0.96199   0.98916
 Alpha virt. eigenvalues --    0.99787   1.01270   1.07468   1.07967   1.08510
 Alpha virt. eigenvalues --    1.09257   1.10267   1.11787   1.13129   1.13708
 Alpha virt. eigenvalues --    1.14484   1.14866   1.16271   1.17244   1.17795
 Alpha virt. eigenvalues --    1.18111   1.18924   1.19802   1.21250   1.21995
 Alpha virt. eigenvalues --    1.24215   1.27292   1.32610   1.34383   1.36176
 Alpha virt. eigenvalues --    1.38352   1.39092   1.40826   1.43621   1.48802
 Alpha virt. eigenvalues --    1.49589   1.56359   1.58183   1.61123   1.64173
 Alpha virt. eigenvalues --    1.64435   1.66839   1.70762   1.72173   1.73486
 Alpha virt. eigenvalues --    1.75175   1.75739   1.80063   1.81124   1.84108
 Alpha virt. eigenvalues --    1.90578   1.97764   2.04437   2.07424   2.08320
 Alpha virt. eigenvalues --    2.10499   2.12029   2.12681   2.15871   2.21116
 Alpha virt. eigenvalues --    2.22793   2.24850   2.26207   2.29040   2.31388
 Alpha virt. eigenvalues --    2.35083   2.35831   2.37473   2.39049   2.43358
 Alpha virt. eigenvalues --    2.44666   2.47478   2.50127   2.52805   2.54294
 Alpha virt. eigenvalues --    2.58202   2.59469   2.62454   2.65047   2.67379
 Alpha virt. eigenvalues --    2.70475   2.76860   2.78855   2.87118   2.89668
 Alpha virt. eigenvalues --    2.91441   2.95466   3.01853   3.03062   3.06070
 Alpha virt. eigenvalues --    3.07342   3.08095   3.11089   3.20078   3.24850
 Alpha virt. eigenvalues --    3.33411   3.39578   3.52857   3.70975   4.38165
 Alpha virt. eigenvalues --    4.45686   4.46648   4.51219   4.55865   4.61729
 Alpha virt. eigenvalues --    4.68401   4.74362   4.77946   4.83020   4.89801
 Alpha virt. eigenvalues --    5.10997
          Condensed to atoms (all electrons):
               1          2          3          4          5          6
     1  H    0.451970   0.385386  -0.018782  -0.018456  -0.028829   0.003617
     2  C    0.385386   5.260788   0.371770   0.373251   0.371426  -0.070125
     3  H   -0.018782   0.371770   0.519033  -0.024548  -0.033647   0.001319
     4  H   -0.018456   0.373251  -0.024548   0.511993  -0.033854   0.001238
     5  C   -0.028829   0.371426  -0.033647  -0.033854   4.179652   0.602192
     6  O    0.003617  -0.070125   0.001319   0.001238   0.602192   8.186259
     7  H    0.000000   0.000000   0.000000   0.000000   0.000000   0.000000
     8  H    0.000000   0.000000   0.000000   0.000000   0.000000   0.000000
     9  C    0.000000   0.000000   0.000000   0.000000  -0.000001   0.000000
    10  C    0.000000   0.000000   0.000000   0.000000   0.000012   0.000015
    11  Cl   0.000000   0.000000   0.000000   0.000000   0.000000   0.000000
    12  C    0.000000   0.000000   0.000000   0.000000  -0.000002   0.000000
    13  C    0.000000   0.000011   0.000000  -0.000003   0.001499   0.000055
    14  H    0.000000   0.000030   0.000000  -0.000004   0.000314   0.002294
    15  C    0.000000  -0.000013   0.000000   0.000003  -0.000073  -0.000021
    16  C    0.000002  -0.000203  -0.000001   0.000046  -0.002068  -0.001371
    17  H    0.000000   0.000000   0.000000   0.000000   0.000006   0.000000
    18  H    0.000000   0.000178  -0.000014  -0.000004   0.000318   0.004738
    19  C   -0.000062   0.003824  -0.000163  -0.000209  -0.014874   0.006941
    20  H    0.000001  -0.000005  -0.000002  -0.000005   0.002767   0.000322
    21  N    0.003465  -0.117637   0.003638   0.003709   0.234048  -0.104295
    22  H   -0.000004  -0.000312   0.000643   0.000413  -0.020467   0.002464
               7          8          9         10         11         12
     1  H    0.000000   0.000000   0.000000   0.000000   0.000000   0.000000
     2  C    0.000000   0.000000   0.000000   0.000000   0.000000   0.000000
     3  H    0.000000   0.000000   0.000000   0.000000   0.000000   0.000000
     4  H    0.000000   0.000000   0.000000   0.000000   0.000000   0.000000
     5  C    0.000000   0.000000  -0.000001   0.000012   0.000000  -0.000002
     6  O    0.000000   0.000000   0.000000   0.000015   0.000000   0.000000
     7  H    0.444062  -0.001408   0.382392  -0.026323   0.000865  -0.030496
     8  H   -0.001408   0.454341  -0.029575   0.381949  -0.000082   0.002169
     9  C    0.382392  -0.029575   4.949242   0.536726  -0.064216   0.530553
    10  C   -0.026323   0.381949   0.536726   4.900894   0.002492  -0.039942
    11  Cl   0.000865  -0.000082  -0.064216   0.002492  16.910095   0.207928
    12  C   -0.030496   0.002169   0.530553  -0.039942   0.207928   5.033079
    13  C    0.002203  -0.026500  -0.045302   0.535033   0.000134  -0.030631
    14  H   -0.000081  -0.000940   0.002309  -0.026530   0.000005   0.000109
    15  C    0.002150   0.000238  -0.049850  -0.031292  -0.067220   0.525385
    16  C    0.000182   0.002007  -0.026689  -0.043441   0.002593  -0.038773
    17  H   -0.000098   0.000008   0.002220   0.000074   0.000887  -0.028973
    18  H    0.000000  -0.000001  -0.000003   0.000084   0.000002  -0.000047
    19  C    0.000004  -0.000103   0.000165   0.002452  -0.000101   0.002178
    20  H    0.000000   0.000002  -0.000016  -0.000060  -0.000008   0.000213
    21  N    0.000000   0.000002   0.000003  -0.000038   0.000003   0.000039
    22  H    0.000000   0.000000  -0.000001  -0.000001   0.000000   0.000003
              13         14         15         16         17         18
     1  H    0.000000   0.000000   0.000000   0.000002   0.000000   0.000000
     2  C    0.000011   0.000030  -0.000013  -0.000203   0.000000   0.000178
     3  H    0.000000   0.000000   0.000000  -0.000001   0.000000  -0.000014
     4  H   -0.000003  -0.000004   0.000003   0.000046   0.000000  -0.000004
     5  C    0.001499   0.000314  -0.000073  -0.002068   0.000006   0.000318
     6  O    0.000055   0.002294  -0.000021  -0.001371   0.000000   0.004738
     7  H    0.002203  -0.000081   0.002150   0.000182  -0.000098   0.000000
     8  H   -0.026500  -0.000940   0.000238   0.002007   0.000008  -0.000001
     9  C   -0.045302   0.002309  -0.049850  -0.026689   0.002220  -0.000003
    10  C    0.535033  -0.026530  -0.031292  -0.043441   0.000074   0.000084
    11  Cl   0.000134   0.000005  -0.067220   0.002593   0.000887   0.000002
    12  C   -0.030631   0.000109   0.525385  -0.038773  -0.028973  -0.000047
    13  C    4.927151   0.377126  -0.043300   0.555670   0.002479  -0.002341
    14  H    0.377126   0.432077   0.002370  -0.028081  -0.000089   0.001306
    15  C   -0.043300   0.002370   4.987744   0.541563   0.381766   0.002688
    16  C    0.555670  -0.028081   0.541563   4.874288  -0.031743  -0.041098
    17  H    0.002479  -0.000089   0.381766  -0.031743   0.457929   0.000049
    18  H   -0.002341   0.001306   0.002688  -0.041098   0.000049   0.444463
    19  C   -0.038194  -0.001028  -0.040758   0.331819  -0.002519   0.405902
    20  H    0.002918  -0.000023  -0.002588  -0.062376   0.001870  -0.021366
    21  N   -0.001109  -0.000500  -0.000047  -0.072952   0.000302  -0.032365
    22  H    0.000010  -0.000003   0.001150   0.001164   0.000138   0.002389
              19         20         21         22
     1  H   -0.000062   0.000001   0.003465  -0.000004
     2  C    0.003824  -0.000005  -0.117637  -0.000312
     3  H   -0.000163  -0.000002   0.003638   0.000643
     4  H   -0.000209  -0.000005   0.003709   0.000413
     5  C   -0.014874   0.002767   0.234048  -0.020467
     6  O    0.006941   0.000322  -0.104295   0.002464
     7  H    0.000004   0.000000   0.000000   0.000000
     8  H   -0.000103   0.000002   0.000002   0.000000
     9  C    0.000165  -0.000016   0.000003  -0.000001
    10  C    0.002452  -0.000060  -0.000038  -0.000001
    11  Cl  -0.000101  -0.000008   0.000003   0.000000
    12  C    0.002178   0.000213   0.000039   0.000003
    13  C   -0.038194   0.002918  -0.001109   0.000010
    14  H   -0.001028  -0.000023  -0.000500  -0.000003
    15  C   -0.040758  -0.002588  -0.000047   0.001150
    16  C    0.331819  -0.062376  -0.072952   0.001164
    17  H   -0.002519   0.001870   0.000302   0.000138
    18  H    0.405902  -0.021366  -0.032365   0.002389
    19  C    4.922058   0.422078   0.182124  -0.024075
    20  H    0.422078   0.518293  -0.047476  -0.003139
    21  N    0.182124  -0.047476   7.399315   0.322483
    22  H   -0.024075  -0.003139   0.322483   0.333028
 Mulliken charges:
               1
     1  H    0.221692
     2  C   -0.578369
     3  H    0.180756
     4  H    0.186428
     5  C    0.741580
     6  O   -0.635642
     7  H    0.226549
     8  H    0.217892
     9  C   -0.187960
    10  C   -0.192106
    11  Cl   0.006624
    12  C   -0.132793
    13  C   -0.216909
    14  H    0.239337
    15  C   -0.209897
    16  C    0.039459
    17  H    0.215694
    18  H    0.235120
    19  C   -0.157460
    20  H    0.188599
    21  N   -0.772714
    22  H    0.384119
 Sum of Mulliken charges =   0.00000
 Mulliken charges with hydrogens summed into heavy atoms:
               1
     2  C    0.010507
     5  C    0.741580
     6  O   -0.635642
     9  C    0.038590
    10  C    0.025786
    11  Cl   0.006624
    12  C   -0.132793
    13  C    0.022428
    15  C    0.005798
    16  C    0.039459
    19  C    0.266259
    21  N   -0.388595
 DipInt: DoE/N= T F RetVal/Mat= T F Init=T NMatP=  1 IDeriv=0 Min/MaxMlt=  0  4
 Entering OneElI...
 OneElI was handed  2147374359 working-precision words.
 Multipole integrals L=0 to 4 MinM= 0 MaxM= 0.
 Requested accuracy = 0.1000D-12
 ShPair: Thresh= 1.00D-13 NBox=     0 BxSize= 0.00D+00 RnKept= 1.65D+01
         NSMCal=                 2415 NSMKep=                2108
 PrsmSu:  NPrtUS=   1 ThrOK=F IAlg=1 NPAlg=1 LenDen=           0.
 Prism:   IPart=     0 DynPar=F LinDyn=F Incr=          21.
 PRISM was handed  2147178557 working-precision words and  2108 shell-pairs
 IPart=  0 NShTot=        2108 NBatch=          53 AvBLen=        39.8
 PrSmSu:  NxtVal=             22.
 Electronic moments (au):
        -96.00000000         -0.07508170         -0.90820998         -0.07875221
      -2590.37710125       -508.81698424       -214.93700945        -11.69582755
         -0.80567700         -1.74213330      -1698.96770983       -557.82219587
        -44.07558144        502.97599137       2122.69399847       1606.48518736
       -450.72417308         90.42027318        238.30323728       -396.97156484
    -119774.52261919      -6585.05838174      -1816.76462967      -4475.18194279
       5729.27995681       1412.31369255        370.63991739        558.67662274
       -148.96922757     -12574.29009954      -5694.05836673      -1027.73785455
      -2635.09055644       -122.13655056       1027.44318417
 Electronic spatial extent (au):  <R**2>=           3314.1311
 DipInt: DoE/N= F T RetVal/Mat= T F Init=T NMatP=  1 IDeriv=0 Min/MaxMlt=  0  4
 Nuclear    moments (au):
         96.00000000          0.00000000          0.00000000          0.00000000
       2523.61603462        455.44415085        157.82724987          0.00000000
          0.00000000          0.00000000       1684.08372488        554.46835312
         46.36600242       -506.23643630      -2169.55133184      -1637.29794368
        465.82056950        -94.56348133       -243.55609461        407.99086471
     110449.47941671       4934.84126897       1050.96649208       4031.17649874
      -5837.44432278      -1428.43311812       -425.11508928       -548.98915908
        152.78464556      10780.71524050       4101.54369932        598.62994238
       2610.65804831        161.64781931      -1008.61818369
 Total      moments (au):
          0.00000000         -0.07508170         -0.90820998         -0.07875221
        -66.76106662        -53.37283339        -57.10975958        -11.69582755
         -0.80567700         -1.74213330        -14.88398495         -3.35384275
          2.29042098         -3.26044493        -46.85733337        -30.81275632
         15.09639643         -4.14320815         -5.25285733         11.01929987
      -9325.04320248      -1650.21711278       -765.79813759       -444.00544405
       -108.16436597        -16.11942557        -54.47517189          9.68746366
          3.81541799      -1793.57485904      -1592.51466741       -429.10791217
        -24.43250813         39.51126875         18.82500048
 Traceless Quadrup. (au):
         -7.67984676          5.70838648          1.97146029        -11.69582755
         -0.80567700         -1.74213330
 Charge=              0.0000 electrons
 Dipole moment (field-independent basis, Debye):
    X=             -0.1908    Y=             -2.3084    Z=             -0.2002  Tot=              2.3249
 Quadrupole moment (field-independent basis, Debye-Ang):
   XX=            -89.7959   YY=            -71.7883   ZZ=            -76.8146
   XY=            -15.7313   XZ=             -1.0837   YZ=             -2.3432
 Traceless Quadrupole moment (field-independent basis, Debye-Ang):
   XX=            -10.3297   YY=              7.6780   ZZ=              2.6517
   XY=            -15.7313   XZ=             -1.0837   YZ=             -2.3432
 Octapole moment (field-independent basis, Debye-Ang**2):
  XXX=            -10.5938  YYY=             -2.3871  ZZZ=              1.6302  XYY=             -2.3207
  XXY=            -33.3512  XXZ=            -21.9313  XZZ=             10.7450  YZZ=             -2.9490
  YYZ=             -3.7388  XYZ=              7.8431
 Hexadecapole moment (field-independent basis, Debye-Ang**3):
 XXXX=          -3512.2582 YYYY=           -621.5509 ZZZZ=           -288.4363 XXXY=           -167.2337
 XXXZ=            -40.7399 YYYX=             -6.0713 YYYZ=            -20.5180 ZZZX=              3.6488
 ZZZY=              1.4371 XXYY=           -675.5463 XXZZ=           -599.8173 YYZZ=           -161.6226
 XXYZ=             -9.2025 YYXZ=             14.8818 ZZXY=              7.0904
 N-N= 7.236774462523D+02 E-N=-3.652788452793D+03  KE= 9.339839292226D+02
 Entering OneElI...
 OneElI was handed  2147394515 working-precision words.
 Calculate electrostatic properties
    NBasis =   204  MinDer = 0  MaxDer = 0
    NGrid  =    22  NMatD  =   1
 Requested accuracy = 0.1000D-12
 PrtBox:  NBox=     1 Levels=  1 BoxLen=   32.45 SMaxX=       16.25
          Shift=            6.949184            3.774056            3.751365
 Box      1 Number                   0 centers from      1 to     69:
 ShPair: Thresh= 1.00D-13 NBox=     1 BxSize= 3.24D+01 RnKept= 1.65D+01
         NSMCal=                 2415 NSMKep=                1935
 PrsmSu:  NPrtUS=   4 ThrOK=T IAlg=1 NPAlg=1 LenDen=           0.
 Prism:   IPart=     0 DynPar=F LinDyn=F Incr=         106.
 PRISM was handed   536755548 working-precision words and  1935 shell-pairs
 PRISM was handed   536755548 working-precision words and  1935 shell-pairs
 PRISM was handed   536755548 working-precision words and  1935 shell-pairs
 PRISM was handed   536755548 working-precision words and  1935 shell-pairs
 IPart=  1 NShTot=       10692 NBatch=         486 AvBLen=        22.0
 IPart=  3 NShTot=       10296 NBatch=         468 AvBLen=        22.0
 IPart=  2 NShTot=       10494 NBatch=         477 AvBLen=        22.0
 IPart=  0 NShTot=       11088 NBatch=         504 AvBLen=        22.0
 PrSmSu:  NxtVal=            425.
 --------------------------------------------------------
       Center         ----      EFG at Nuclei      ----
                      3XX-RR        3YY-RR        3ZZ-RR
 --------------------------------------------------------
     1   Atom       -0.130960      0.037658      0.093302
     2   Atom        0.008392      0.018355     -0.026747
     3   Atom        0.108981     -0.156455      0.047474
     4   Atom       -0.014746      0.123104     -0.108358
     5   Atom       -0.044739      0.245627     -0.200888
     6   Atom        0.683466     -0.905035      0.221569
     7   Atom       -0.187447      0.100910      0.086537
     8   Atom        0.146908     -0.251609      0.104701
     9   Atom        0.129844      0.086329     -0.216173
    10   Atom        0.137863      0.106135     -0.243998
    11   Atom       -1.313778     -0.396661      1.710439
    12   Atom       -0.054810      0.082312     -0.027502
    13   Atom        0.119596      0.113166     -0.232762
    14   Atom       -0.131432     -0.029928      0.161361
    15   Atom        0.096100      0.097279     -0.193379
    16   Atom        0.090954      0.143423     -0.234377
    17   Atom        0.146480     -0.263889      0.117408
    18   Atom        0.060450     -0.101335      0.040884
    19   Atom       -0.056088      0.116995     -0.060906
    20   Atom        0.118127     -0.060457     -0.057670
    21   Atom       -0.037242     -0.396355      0.433597
    22   Atom        0.152107     -0.322830      0.170723
 --------------------------------------------------------
                        XY            XZ            YZ
 --------------------------------------------------------
     1   Atom       -0.177809      0.129588      0.079154
     2   Atom        0.055972      0.032970     -0.037914
     3   Atom        0.120153     -0.061902      0.179364
     4   Atom       -0.071456     -0.202925     -0.095885
     5   Atom        0.121265     -0.322474      0.266798
     6   Atom       -0.330727     -1.186726      0.126950
     7   Atom        0.122340     -0.169752      0.067527
     8   Atom        0.029649     -0.018412      0.161550
     9   Atom        0.062766      0.127107     -0.103946
    10   Atom        0.043288      0.152954     -0.144137
    11   Atom       -2.665305     -0.389489     -0.403117
    12   Atom       -0.256308      0.102162     -0.162918
    13   Atom        0.045080      0.146042     -0.144224
    14   Atom       -0.225997     -0.026004     -0.007188
    15   Atom        0.072732      0.115311     -0.104147
    16   Atom        0.057038      0.127543     -0.145298
    17   Atom        0.031438     -0.020587      0.154669
    18   Atom       -0.133984     -0.091829     -0.166278
    19   Atom        0.155911      0.154349     -0.083028
    20   Atom       -0.073778      0.084355      0.208924
    21   Atom       -0.211726      0.678324     -0.368785
    22   Atom       -0.104425      0.017391     -0.124725
 --------------------------------------------------------


 ---------------------------------------------------------------------------------
              Nuclear Quadrupole Coupling Constant in Principal Axis System
 ---------------------------------------------------------------------------------

       Atom             a.u.   MegaHertz   Gauss  10(-4) cm-1        Axes

              Baa    -3.6180   -69.412   -24.768   -23.153  0.7599  0.6417  0.1041
    11 Cl(35) Bbb     1.7393    33.368    11.906    11.130 -0.3675  0.2919  0.8830
              Bcc     1.8788    36.044    12.861    12.023 -0.5363  0.7092 -0.4576
 
              Baa    -0.5600     2.690     0.960     0.897 -0.4585  0.6843  0.5670
    21 N(14)  Bbb    -0.4809     2.309     0.824     0.770  0.6981  0.6722 -0.2467
              Bcc     1.0409    -4.999    -1.784    -1.668  0.5500 -0.2827  0.7859
 

 ---------------------------------------------------------------------------------

 No NMR shielding tensors so no spin-rotation constants.
 Leave Link  601 at Wed Nov 29 18:14:47 2017, MaxMem=  2147483648 cpu:         0.6
 FitSet:  NAtFit=    22 NAtPot=    22 NAtFrz=     0 MDM=    26 TotChg=   0.00000
 Merz-Kollman atomic radii used.
 Atom Element Radius
    1     1    1.20
    2     6    1.50
    3     1    1.20
    4     1    1.20
    5     6    1.50
    6     8    1.40
    7     1    1.20
    8     1    1.20
    9     6    1.50
   10     6    1.50
   11    17    1.70
   12     6    1.50
   13     6    1.50
   14     1    1.20
   15     6    1.50
   16     6    1.50
   17     1    1.20
   18     1    1.20
   19     6    1.50
   20     1    1.20
   21     7    1.50
   22     1    1.20
 Generate VDW surfaces: Layer= 4 Dens= 6 Start= 1.400 Inc= 0.200

 **********************************************************************

            Electrostatic Properties Using The SCF Density

 **********************************************************************

       Atomic Center    1 is at   4.924179 -0.559109 -1.551090
       Atomic Center    2 is at   4.064087 -1.102758 -1.161128
       Atomic Center    3 is at   4.405214 -1.997144 -0.639788
       Atomic Center    4 is at   3.410387 -1.390614 -1.985137
       Atomic Center    5 is at   3.255930 -0.230196 -0.170692
       Atomic Center    6 is at   3.618873  0.920392  0.079987
       Atomic Center    7 is at  -3.387242  1.561228 -0.978597
       Atomic Center    8 is at  -1.435141  3.093774 -0.842686
       Atomic Center    9 is at  -2.464014  1.219807 -0.531567
       Atomic Center   10 is at  -1.356899  2.088188 -0.452993
       Atomic Center   11 is at  -3.677350 -1.201621 -0.220315
       Atomic Center   12 is at  -2.357093 -0.100059 -0.051461
       Atomic Center   13 is at  -0.148503  1.645940  0.124602
       Atomic Center   14 is at   0.699290  2.313742  0.177829
       Atomic Center   15 is at  -1.152675 -0.536527  0.535342
       Atomic Center   16 is at  -0.046530  0.333969  0.632152
       Atomic Center   17 is at  -1.076239 -1.550989  0.892356
       Atomic Center   18 is at   1.706126  0.681392  1.836133
       Atomic Center   19 is at   1.235352 -0.142255  1.295301
       Atomic Center   20 is at   0.953574 -0.883844  2.040265
       Atomic Center   21 is at   2.171178 -0.785220  0.382515
       Atomic Center   22 is at   1.987644 -1.764136  0.161219
      ESP Fit Center   23 is at   5.651641 -0.139109 -0.096168
      ESP Fit Center   24 is at   6.112119 -0.559109 -0.363151
      ESP Fit Center   25 is at   6.031900 -0.129976 -0.363151
      ESP Fit Center   26 is at   5.802077  0.241201 -0.363151
      ESP Fit Center   27 is at   6.031900 -0.988242 -0.363151
      ESP Fit Center   28 is at   6.379102 -0.559109 -0.711090
      ESP Fit Center   29 is at   6.314464 -0.130263 -0.711090
      ESP Fit Center   30 is at   6.126293  0.260478 -0.711090
      ESP Fit Center   31 is at   5.831309  0.578396 -0.711090
      ESP Fit Center   32 is at   5.455722  0.795241 -0.711090
      ESP Fit Center   33 is at   6.126293 -1.378696 -0.711090
      ESP Fit Center   34 is at   6.314464 -0.987955 -0.711090
      ESP Fit Center   35 is at   6.546935 -0.559109 -1.116274
      ESP Fit Center   36 is at   6.491641 -0.139109 -1.116274
      ESP Fit Center   37 is at   6.329527  0.252269 -1.116274
      ESP Fit Center   38 is at   6.071641  0.588353 -1.116274
      ESP Fit Center   39 is at   5.735557  0.846239 -1.116274
      ESP Fit Center   40 is at   5.344179  1.008353 -1.116274
      ESP Fit Center   41 is at   6.329527 -1.370486 -1.116274
      ESP Fit Center   42 is at   6.491641 -0.979109 -1.116274
      ESP Fit Center   43 is at   6.604179 -0.559109 -1.551090
      ESP Fit Center   44 is at   6.551399 -0.141310 -1.551090
      ESP Fit Center   45 is at   6.396374  0.250237 -1.551090
      ESP Fit Center   46 is at   6.148847  0.590930 -1.551090
      ESP Fit Center   47 is at   5.824368  0.859362 -1.551090
      ESP Fit Center   48 is at   5.443328  1.038666 -1.551090
      ESP Fit Center   49 is at   5.029667  1.117576 -1.551090
      ESP Fit Center   50 is at   6.148847 -1.709148 -1.551090
      ESP Fit Center   51 is at   6.396374 -1.368455 -1.551090
      ESP Fit Center   52 is at   6.551399 -0.976908 -1.551090
      ESP Fit Center   53 is at   6.546935 -0.559109 -1.985906
      ESP Fit Center   54 is at   6.491641 -0.139109 -1.985906
      ESP Fit Center   55 is at   6.329527  0.252269 -1.985906
      ESP Fit Center   56 is at   6.071641  0.588353 -1.985906
      ESP Fit Center   57 is at   5.735557  0.846239 -1.985906
      ESP Fit Center   58 is at   5.344179  1.008353 -1.985906
      ESP Fit Center   59 is at   4.924179  1.063647 -1.985906
      ESP Fit Center   60 is at   4.504179  1.008353 -1.985906
      ESP Fit Center   61 is at   4.112802  0.846239 -1.985906
      ESP Fit Center   62 is at   6.071641 -1.706570 -1.985906
      ESP Fit Center   63 is at   6.329527 -1.370486 -1.985906
      ESP Fit Center   64 is at   6.491641 -0.979109 -1.985906
      ESP Fit Center   65 is at   6.379102 -0.559109 -2.391090
      ESP Fit Center   66 is at   6.314464 -0.130263 -2.391090
      ESP Fit Center   67 is at   6.126293  0.260478 -2.391090
      ESP Fit Center   68 is at   5.831309  0.578396 -2.391090
      ESP Fit Center   69 is at   5.455722  0.795241 -2.391090
      ESP Fit Center   70 is at   5.032906  0.891746 -2.391090
      ESP Fit Center   71 is at   4.600429  0.859336 -2.391090
      ESP Fit Center   72 is at   4.196718  0.700891 -2.391090
      ESP Fit Center   73 is at   5.831309 -1.696613 -2.391090
      ESP Fit Center   74 is at   6.126293 -1.378696 -2.391090
      ESP Fit Center   75 is at   6.314464 -0.987955 -2.391090
      ESP Fit Center   76 is at   6.112119 -0.559109 -2.739030
      ESP Fit Center   77 is at   6.031900 -0.129976 -2.739030
      ESP Fit Center   78 is at   5.802077  0.241201 -2.739030
      ESP Fit Center   79 is at   5.453689  0.504291 -2.739030
      ESP Fit Center   80 is at   5.033788  0.623763 -2.739030
      ESP Fit Center   81 is at   4.599084  0.583482 -2.739030
      ESP Fit Center   82 is at   4.208286  0.388887 -2.739030
      ESP Fit Center   83 is at   5.453689 -1.622508 -2.739030
      ESP Fit Center   84 is at   5.802077 -1.359418 -2.739030
      ESP Fit Center   85 is at   6.031900 -0.988242 -2.739030
      ESP Fit Center   86 is at   5.764179 -0.559109 -3.006013
      ESP Fit Center   87 is at   5.651641 -0.139109 -3.006013
      ESP Fit Center   88 is at   5.344179  0.168353 -3.006013
      ESP Fit Center   89 is at   4.924179  0.280891 -3.006013
      ESP Fit Center   90 is at   4.504179  0.168353 -3.006013
      ESP Fit Center   91 is at   5.344179 -1.286570 -3.006013
      ESP Fit Center   92 is at   5.651641 -0.979109 -3.006013
      ESP Fit Center   93 is at   5.358995 -0.559109 -3.173846
      ESP Fit Center   94 is at   5.141587 -0.182547 -3.173846
      ESP Fit Center   95 is at   4.706771 -0.182547 -3.173846
      ESP Fit Center   96 is at   4.489363 -0.559109 -3.173846
      ESP Fit Center   97 is at   4.706771 -0.935670 -3.173846
      ESP Fit Center   98 is at   5.141587 -0.935670 -3.173846
      ESP Fit Center   99 is at   4.924179 -0.559109 -3.231090
      ESP Fit Center  100 is at   5.230784 -1.102758  0.584959
      ESP Fit Center  101 is at   5.549011 -1.102758  0.323797
      ESP Fit Center  102 is at   5.488861 -0.684407  0.323797
      ESP Fit Center  103 is at   5.313285 -0.299948  0.323797
      ESP Fit Center  104 is at   5.810173 -1.102758  0.005570
      ESP Fit Center  105 is at   5.759435 -0.684893  0.005570
      ESP Fit Center  106 is at   5.610169 -0.291312  0.005570
      ESP Fit Center  107 is at   6.004234 -1.102758 -0.357492
      ESP Fit Center  108 is at   6.081575 -1.517363 -0.751438
      ESP Fit Center  109 is at   2.897389 -2.848845 -1.161128
      ESP Fit Center  110 is at   6.004234 -1.906394 -1.161128
      ESP Fit Center  111 is at   5.956817 -1.914993 -1.570817
      ESP Fit Center  112 is at   3.750206  0.811830 -1.964763
      ESP Fit Center  113 is at   4.169124 -3.040060 -1.964763
      ESP Fit Center  114 is at   5.320111 -2.581465 -1.964763
      ESP Fit Center  115 is at   5.608624 -2.276885 -1.964763
      ESP Fit Center  116 is at   5.824917 -1.917405 -1.964763
      ESP Fit Center  117 is at   3.853619  0.630597 -2.327825
      ESP Fit Center  118 is at   3.444916  0.529861 -2.327825
      ESP Fit Center  119 is at   3.072197  0.334242 -2.327825
      ESP Fit Center  120 is at   4.274554 -2.836114 -2.327825
      ESP Fit Center  121 is at   4.683257 -2.735377 -2.327825
      ESP Fit Center  122 is at   5.055977 -2.539759 -2.327825
      ESP Fit Center  123 is at   5.371051 -2.260628 -2.327825
      ESP Fit Center  124 is at   5.610169 -1.914205 -2.327825
      ESP Fit Center  125 is at   3.852760  0.367051 -2.646052
      ESP Fit Center  126 is at   3.447227  0.247976 -2.646052
      ESP Fit Center  127 is at   4.680947 -2.453493 -2.646052
      ESP Fit Center  128 is at   5.036505 -2.224989 -2.646052
      ESP Fit Center  129 is at   5.313285 -1.905569 -2.646052
      ESP Fit Center  130 is at   3.744805  0.019401 -2.907214
      ESP Fit Center  131 is at   4.926287 -1.888757 -2.907214
      ESP Fit Center  132 is at   5.152000 -1.524218 -2.907214
      ESP Fit Center  133 is at   4.064087 -0.299123 -3.101275
      ESP Fit Center  134 is at   4.760055 -1.504576 -3.101275
      ESP Fit Center  135 is at   4.405214 -1.997144  1.040212
      ESP Fit Center  136 is at   4.840030 -1.997144  0.982968
      ESP Fit Center  137 is at   4.622622 -1.620583  0.982968
      ESP Fit Center  138 is at   3.970398 -1.997144  0.982968
      ESP Fit Center  139 is at   4.187806 -2.373706  0.982968
      ESP Fit Center  140 is at   4.622622 -2.373706  0.982968
      ESP Fit Center  141 is at   5.245214 -1.997144  0.815135
      ESP Fit Center  142 is at   5.132675 -1.577144  0.815135
      ESP Fit Center  143 is at   4.825214 -1.269683  0.815135
      ESP Fit Center  144 is at   3.677752 -2.417144  0.815135
      ESP Fit Center  145 is at   3.985214 -2.724606  0.815135
      ESP Fit Center  146 is at   4.405214 -2.837144  0.815135
      ESP Fit Center  147 is at   4.825214 -2.724606  0.815135
      ESP Fit Center  148 is at   5.132675 -2.417144  0.815135
      ESP Fit Center  149 is at   5.593153 -1.997144  0.548152
      ESP Fit Center  150 is at   5.512934 -1.568011  0.548152
      ESP Fit Center  151 is at   5.283111 -1.196835  0.548152
      ESP Fit Center  152 is at   3.395207 -2.622514  0.548152
      ESP Fit Center  153 is at   3.689320 -2.945140  0.548152
      ESP Fit Center  154 is at   4.080119 -3.139735  0.548152
      ESP Fit Center  155 is at   4.514823 -3.180016  0.548152
      ESP Fit Center  156 is at   4.934724 -3.060544  0.548152
      ESP Fit Center  157 is at   5.283111 -2.797454  0.548152
      ESP Fit Center  158 is at   5.512934 -2.426278  0.548152
      ESP Fit Center  159 is at   5.860136 -1.997144  0.200212
      ESP Fit Center  160 is at   5.795498 -1.568298  0.200212
      ESP Fit Center  161 is at   3.338680 -2.986743  0.200212
      ESP Fit Center  162 is at   3.677752 -3.257144  0.200212
      ESP Fit Center  163 is at   4.081463 -3.415589  0.200212
      ESP Fit Center  164 is at   4.513940 -3.447999  0.200212
      ESP Fit Center  165 is at   4.936757 -3.351494  0.200212
      ESP Fit Center  166 is at   5.312343 -3.134649  0.200212
      ESP Fit Center  167 is at   5.607327 -2.816731  0.200212
      ESP Fit Center  168 is at   5.795498 -2.425990  0.200212
      ESP Fit Center  169 is at   6.027969 -1.997144 -0.204972
      ESP Fit Center  170 is at   5.972675 -1.577144 -0.204972
      ESP Fit Center  171 is at   3.257752 -3.144606 -0.204972
      ESP Fit Center  172 is at   3.593836 -3.402492 -0.204972
      ESP Fit Center  173 is at   3.985214 -3.564606 -0.204972
      ESP Fit Center  174 is at   4.405214 -3.619900 -0.204972
      ESP Fit Center  175 is at   4.825214 -3.564606 -0.204972
      ESP Fit Center  176 is at   5.216591 -3.402492 -0.204972
      ESP Fit Center  177 is at   5.552675 -3.144606 -0.204972
      ESP Fit Center  178 is at   5.810561 -2.808522 -0.204972
      ESP Fit Center  179 is at   5.972675 -2.417144 -0.204972
      ESP Fit Center  180 is at   6.085214 -1.997144 -0.639788
      ESP Fit Center  181 is at   3.046065 -2.984624 -0.639788
      ESP Fit Center  182 is at   3.334341 -3.291607 -0.639788
      ESP Fit Center  183 is at   3.689904 -3.517254 -0.639788
      ESP Fit Center  184 is at   4.090413 -3.647387 -0.639788
      ESP Fit Center  185 is at   4.510702 -3.673829 -0.639788
      ESP Fit Center  186 is at   4.924362 -3.594919 -0.639788
      ESP Fit Center  187 is at   5.305403 -3.415615 -0.639788
      ESP Fit Center  188 is at   5.629881 -3.147183 -0.639788
      ESP Fit Center  189 is at   5.877409 -2.806490 -0.639788
      ESP Fit Center  190 is at   6.032433 -2.414943 -0.639788
      ESP Fit Center  191 is at   6.027969 -1.997144 -1.074604
      ESP Fit Center  192 is at   3.257752 -3.144606 -1.074604
      ESP Fit Center  193 is at   3.593836 -3.402492 -1.074604
      ESP Fit Center  194 is at   3.985214 -3.564606 -1.074604
      ESP Fit Center  195 is at   4.405214 -3.619900 -1.074604
      ESP Fit Center  196 is at   4.825214 -3.564606 -1.074604
      ESP Fit Center  197 is at   5.216591 -3.402492 -1.074604
      ESP Fit Center  198 is at   5.552675 -3.144606 -1.074604
      ESP Fit Center  199 is at   5.810561 -2.808522 -1.074604
      ESP Fit Center  200 is at   5.972675 -2.417144 -1.074604
      ESP Fit Center  201 is at   3.677752 -3.257144 -1.479788
      ESP Fit Center  202 is at   4.081463 -3.415589 -1.479788
      ESP Fit Center  203 is at   4.513940 -3.447999 -1.479788
      ESP Fit Center  204 is at   4.936757 -3.351494 -1.479788
      ESP Fit Center  205 is at   5.312343 -3.134649 -1.479788
      ESP Fit Center  206 is at   5.607327 -2.816731 -1.479788
      ESP Fit Center  207 is at   5.795498 -2.425990 -1.479788
      ESP Fit Center  208 is at   4.080119 -3.139735 -1.827727
      ESP Fit Center  209 is at   4.514823 -3.180016 -1.827727
      ESP Fit Center  210 is at   4.934724 -3.060544 -1.827727
      ESP Fit Center  211 is at   5.283111 -2.797454 -1.827727
      ESP Fit Center  212 is at   1.842925 -1.810614 -1.550321
      ESP Fit Center  213 is at   2.005039 -2.201991 -1.550321
      ESP Fit Center  214 is at   2.262925 -2.538075 -1.550321
      ESP Fit Center  215 is at   2.599009 -2.795961 -1.550321
      ESP Fit Center  216 is at   2.990387 -2.958075 -1.550321
      ESP Fit Center  217 is at   2.051238 -0.403134 -1.985137
      ESP Fit Center  218 is at   1.848362 -0.772164 -1.985137
      ESP Fit Center  219 is at   1.743634 -1.180054 -1.985137
      ESP Fit Center  220 is at   1.743634 -1.601173 -1.985137
      ESP Fit Center  221 is at   1.848362 -2.009063 -1.985137
      ESP Fit Center  222 is at   2.051238 -2.378093 -1.985137
      ESP Fit Center  223 is at   2.339514 -2.685076 -1.985137
      ESP Fit Center  224 is at   2.695077 -2.910723 -1.985137
      ESP Fit Center  225 is at   3.095586 -3.040856 -1.985137
      ESP Fit Center  226 is at   3.515875 -3.067298 -1.985137
      ESP Fit Center  227 is at   2.599009  0.014734 -2.419953
      ESP Fit Center  228 is at   2.262925 -0.243152 -2.419953
      ESP Fit Center  229 is at   2.005039 -0.579236 -2.419953
      ESP Fit Center  230 is at   1.842925 -0.970614 -2.419953
      ESP Fit Center  231 is at   1.787631 -1.390614 -2.419953
      ESP Fit Center  232 is at   1.842925 -1.810614 -2.419953
      ESP Fit Center  233 is at   2.005039 -2.201991 -2.419953
      ESP Fit Center  234 is at   2.262925 -2.538075 -2.419953
      ESP Fit Center  235 is at   2.599009 -2.795961 -2.419953
      ESP Fit Center  236 is at   2.990387 -2.958075 -2.419953
      ESP Fit Center  237 is at   3.410387 -3.013369 -2.419953
      ESP Fit Center  238 is at   3.830387 -2.958075 -2.419953
      ESP Fit Center  239 is at   4.221764 -2.795961 -2.419953
      ESP Fit Center  240 is at   3.519113  0.060241 -2.825137
      ESP Fit Center  241 is at   3.086636  0.027831 -2.825137
      ESP Fit Center  242 is at   2.682925 -0.130614 -2.825137
      ESP Fit Center  243 is at   2.343853 -0.401015 -2.825137
      ESP Fit Center  244 is at   2.099547 -0.759346 -2.825137
      ESP Fit Center  245 is at   1.971714 -1.173769 -2.825137
      ESP Fit Center  246 is at   1.971714 -1.607459 -2.825137
      ESP Fit Center  247 is at   2.099547 -2.021881 -2.825137
      ESP Fit Center  248 is at   2.343853 -2.380212 -2.825137
      ESP Fit Center  249 is at   2.682925 -2.650614 -2.825137
      ESP Fit Center  250 is at   3.086636 -2.809058 -2.825137
      ESP Fit Center  251 is at   3.519113 -2.841468 -2.825137
      ESP Fit Center  252 is at   3.941930 -2.744963 -2.825137
      ESP Fit Center  253 is at   4.317516 -2.528118 -2.825137
      ESP Fit Center  254 is at   4.598326 -1.390614 -3.173076
      ESP Fit Center  255 is at   3.939897 -0.327214 -3.173076
      ESP Fit Center  256 is at   3.519996 -0.207742 -3.173076
      ESP Fit Center  257 is at   3.085292 -0.248023 -3.173076
      ESP Fit Center  258 is at   2.694493 -0.442617 -3.173076
      ESP Fit Center  259 is at   2.400380 -0.765244 -3.173076
      ESP Fit Center  260 is at   2.242674 -1.172330 -3.173076
      ESP Fit Center  261 is at   2.242674 -1.608897 -3.173076
      ESP Fit Center  262 is at   2.400380 -2.015983 -3.173076
      ESP Fit Center  263 is at   2.694493 -2.338610 -3.173076
      ESP Fit Center  264 is at   3.085292 -2.533204 -3.173076
      ESP Fit Center  265 is at   3.519996 -2.573485 -3.173076
      ESP Fit Center  266 is at   3.939897 -2.454013 -3.173076
      ESP Fit Center  267 is at   4.288284 -2.190923 -3.173076
      ESP Fit Center  268 is at   4.518107 -1.819747 -3.173076
      ESP Fit Center  269 is at   4.250387 -1.390614 -3.440060
      ESP Fit Center  270 is at   4.137848 -0.970614 -3.440060
      ESP Fit Center  271 is at   3.830387 -0.663152 -3.440060
      ESP Fit Center  272 is at   3.410387 -0.550614 -3.440060
      ESP Fit Center  273 is at   2.990387 -0.663152 -3.440060
      ESP Fit Center  274 is at   2.682925 -0.970614 -3.440060
      ESP Fit Center  275 is at   2.570387 -1.390614 -3.440060
      ESP Fit Center  276 is at   2.682925 -1.810614 -3.440060
      ESP Fit Center  277 is at   2.990387 -2.118075 -3.440060
      ESP Fit Center  278 is at   3.410387 -2.230614 -3.440060
      ESP Fit Center  279 is at   3.830387 -2.118075 -3.440060
      ESP Fit Center  280 is at   4.137848 -1.810614 -3.440060
      ESP Fit Center  281 is at   3.845203 -1.390614 -3.607892
      ESP Fit Center  282 is at   3.627795 -1.014052 -3.607892
      ESP Fit Center  283 is at   3.192979 -1.014052 -3.607892
      ESP Fit Center  284 is at   2.975571 -1.390614 -3.607892
      ESP Fit Center  285 is at   3.192979 -1.767175 -3.607892
      ESP Fit Center  286 is at   3.627795 -1.767175 -3.607892
      ESP Fit Center  287 is at   3.410387 -1.390614 -3.665137
      ESP Fit Center  288 is at   3.665620 -0.230196  1.888957
      ESP Fit Center  289 is at   3.460775  0.124606  1.888957
      ESP Fit Center  290 is at   4.059566 -0.230196  1.769455
      ESP Fit Center  291 is at   3.951899 -0.632013  1.769455
      ESP Fit Center  292 is at   4.422628 -0.230196  1.575394
      ESP Fit Center  293 is at   4.118130 -1.016195  1.575394
      ESP Fit Center  294 is at   4.343843 -0.651656  1.575394
      ESP Fit Center  295 is at   4.740855 -0.230196  1.314232
      ESP Fit Center  296 is at   4.228349 -1.352427  1.314232
      ESP Fit Center  297 is at   4.505128 -1.033006  1.314232
      ESP Fit Center  298 is at   4.680705 -0.648547  1.314232
      ESP Fit Center  299 is at   5.002017 -0.230196  0.996006
      ESP Fit Center  300 is at   3.875101 -1.862815  0.996006
      ESP Fit Center  301 is at   4.562895 -1.388065  0.996006
      ESP Fit Center  302 is at   4.802013 -1.041643  0.996006
      ESP Fit Center  303 is at   4.951278 -0.648062  0.996006
      ESP Fit Center  304 is at   5.196077 -0.230196  0.632943
      ESP Fit Center  305 is at   5.150718 -0.647270  0.632943
      ESP Fit Center  306 is at   1.847392  1.104042 -0.974327
      ESP Fit Center  307 is at   1.593501  0.770054 -0.974327
      ESP Fit Center  308 is at   2.264040  1.206805 -1.337389
      ESP Fit Center  309 is at   1.948966  0.927673 -1.337389
      ESP Fit Center  310 is at   1.709848  0.581251 -1.337389
      ESP Fit Center  311 is at   2.639071  1.120539 -1.655616
      ESP Fit Center  312 is at   2.283512  0.892035 -1.655616
      ESP Fit Center  313 is at   2.006733  0.572615 -1.655616
      ESP Fit Center  314 is at   1.831156  0.188156 -1.655616
      ESP Fit Center  315 is at   1.771006 -0.230196 -1.655616
      ESP Fit Center  316 is at   3.363580  0.931525 -1.916778
      ESP Fit Center  317 is at   2.936648  0.891964 -1.916778
      ESP Fit Center  318 is at   2.552838  0.700849 -1.916778
      ESP Fit Center  319 is at   2.263984  0.383991 -1.916778
      ESP Fit Center  320 is at   2.109098 -0.015816 -1.916778
      ESP Fit Center  321 is at   2.854113  0.465773 -2.110839
      ESP Fit Center  322 is at   2.559962  0.171622 -2.110839
      ESP Fit Center  323 is at   3.618873  0.920392  2.039987
      ESP Fit Center  324 is at   4.026380  0.920392  1.997156
      ESP Fit Center  325 is at   3.822626  1.273303  1.997156
      ESP Fit Center  326 is at   3.415119  1.273303  1.997156
      ESP Fit Center  327 is at   3.415119  0.567480  1.997156
      ESP Fit Center  328 is at   3.822626  0.567480  1.997156
      ESP Fit Center  329 is at   4.416077  0.920392  1.870536
      ESP Fit Center  330 is at   4.309271  1.318994  1.870536
      ESP Fit Center  331 is at   4.017475  1.610791  1.870536
      ESP Fit Center  332 is at   3.618873  1.717596  1.870536
      ESP Fit Center  333 is at   3.220271  1.610791  1.870536
      ESP Fit Center  334 is at   3.618873  0.123188  1.870536
      ESP Fit Center  335 is at   4.017475  0.229993  1.870536
      ESP Fit Center  336 is at   4.309271  0.521790  1.870536
      ESP Fit Center  337 is at   4.770932  0.920392  1.665660
      ESP Fit Center  338 is at   4.693136  1.336564  1.665660
      ESP Fit Center  339 is at   4.470255  1.696529  1.665660
      ESP Fit Center  340 is at   4.132390  1.951673  1.665660
      ESP Fit Center  341 is at   3.725171  2.067536  1.665660
      ESP Fit Center  342 is at   3.303597  2.028472  1.665660
      ESP Fit Center  343 is at   2.924602  1.839755  1.665660
      ESP Fit Center  344 is at   4.470255  0.144255  1.665660
      ESP Fit Center  345 is at   4.693136  0.504220  1.665660
      ESP Fit Center  346 is at   5.075437  0.920392  1.391483
      ESP Fit Center  347 is at   5.016436  1.330753  1.391483
      ESP Fit Center  348 is at   4.844212  1.707870  1.391483
      ESP Fit Center  349 is at   4.572719  2.021189  1.391483
      ESP Fit Center  350 is at   4.223951  2.245329  1.391483
      ESP Fit Center  351 is at   3.826163  2.362130  1.391483
      ESP Fit Center  352 is at   3.411582  2.362130  1.391483
      ESP Fit Center  353 is at   3.013794  2.245329  1.391483
      ESP Fit Center  354 is at   2.665026  2.021189  1.391483
      ESP Fit Center  355 is at   4.844212  0.132914  1.391483
      ESP Fit Center  356 is at   5.016436  0.510030  1.391483
      ESP Fit Center  357 is at   5.316283  0.920392  1.059987
      ESP Fit Center  358 is at   5.262955  1.342520  1.059987
      ESP Fit Center  359 is at   5.106324  1.738125  1.059987
      ESP Fit Center  360 is at   4.856231  2.082349  1.059987
      ESP Fit Center  361 is at   4.528390  2.353562  1.059987
      ESP Fit Center  362 is at   4.143401  2.534724  1.059987
      ESP Fit Center  363 is at   3.725454  2.614452  1.059987
      ESP Fit Center  364 is at   3.300810  2.587736  1.059987
      ESP Fit Center  365 is at   2.896151  2.456254  1.059987
      ESP Fit Center  366 is at   2.536903  2.228269  1.059987
      ESP Fit Center  367 is at   5.106324  0.102658  1.059987
      ESP Fit Center  368 is at   5.262955  0.498263  1.059987
      ESP Fit Center  369 is at   5.482943  0.920392  0.685660
      ESP Fit Center  370 is at   5.436207  1.335187  0.685660
      ESP Fit Center  371 is at   5.298342  1.729182  0.685660
      ESP Fit Center  372 is at   5.076262  2.082621  0.685660
      ESP Fit Center  373 is at   4.781102  2.377781  0.685660
      ESP Fit Center  374 is at   4.427663  2.599862  0.685660
      ESP Fit Center  375 is at   4.033667  2.737726  0.685660
      ESP Fit Center  376 is at   3.618873  2.784463  0.685660
      ESP Fit Center  377 is at   3.204078  2.737726  0.685660
      ESP Fit Center  378 is at   2.810083  2.599862  0.685660
      ESP Fit Center  379 is at   2.456644  2.377781  0.685660
      ESP Fit Center  380 is at   5.298342  0.111602  0.685660
      ESP Fit Center  381 is at   5.436207  0.505597  0.685660
      ESP Fit Center  382 is at   5.568136  0.920392  0.284863
      ESP Fit Center  383 is at   5.522563  1.339426  0.284863
      ESP Fit Center  384 is at   5.387976  1.738866  0.284863
      ESP Fit Center  385 is at   5.170667  2.100035  0.284863
      ESP Fit Center  386 is at   4.880799  2.406046  0.284863
      ESP Fit Center  387 is at   4.531924  2.642589  0.284863
      ESP Fit Center  388 is at   4.140356  2.798604  0.284863
      ESP Fit Center  389 is at   3.724404  2.866796  0.284863
      ESP Fit Center  390 is at   3.303517  2.843976  0.284863
      ESP Fit Center  391 is at   2.897376  2.731212  0.284863
      ESP Fit Center  392 is at   2.524972  2.533775  0.284863
      ESP Fit Center  393 is at   5.387976  0.101918  0.284863
      ESP Fit Center  394 is at   5.522563  0.501358  0.284863
      ESP Fit Center  395 is at   5.568136  0.920392 -0.124889
      ESP Fit Center  396 is at   5.522563  1.339426 -0.124889
      ESP Fit Center  397 is at   5.387976  1.738866 -0.124889
      ESP Fit Center  398 is at   5.170667  2.100035 -0.124889
      ESP Fit Center  399 is at   4.880799  2.406046 -0.124889
      ESP Fit Center  400 is at   4.531924  2.642589 -0.124889
      ESP Fit Center  401 is at   4.140356  2.798604 -0.124889
      ESP Fit Center  402 is at   3.724404  2.866796 -0.124889
      ESP Fit Center  403 is at   3.303517  2.843976 -0.124889
      ESP Fit Center  404 is at   2.897376  2.731212 -0.124889
      ESP Fit Center  405 is at   2.524972  2.533775 -0.124889
      ESP Fit Center  406 is at   5.522563  0.501358 -0.124889
      ESP Fit Center  407 is at   5.482943  0.920392 -0.525686
      ESP Fit Center  408 is at   5.436207  1.335187 -0.525686
      ESP Fit Center  409 is at   5.298342  1.729182 -0.525686
      ESP Fit Center  410 is at   5.076262  2.082621 -0.525686
      ESP Fit Center  411 is at   4.781102  2.377781 -0.525686
      ESP Fit Center  412 is at   4.427663  2.599862 -0.525686
      ESP Fit Center  413 is at   4.033667  2.737726 -0.525686
      ESP Fit Center  414 is at   3.618873  2.784463 -0.525686
      ESP Fit Center  415 is at   3.204078  2.737726 -0.525686
      ESP Fit Center  416 is at   2.810083  2.599862 -0.525686
      ESP Fit Center  417 is at   2.456644  2.377781 -0.525686
      ESP Fit Center  418 is at   5.262955  1.342520 -0.900013
      ESP Fit Center  419 is at   5.106324  1.738125 -0.900013
      ESP Fit Center  420 is at   4.856231  2.082349 -0.900013
      ESP Fit Center  421 is at   4.528390  2.353562 -0.900013
      ESP Fit Center  422 is at   4.143401  2.534724 -0.900013
      ESP Fit Center  423 is at   3.725454  2.614452 -0.900013
      ESP Fit Center  424 is at   3.300810  2.587736 -0.900013
      ESP Fit Center  425 is at   2.896151  2.456254 -0.900013
      ESP Fit Center  426 is at   2.536903  2.228269 -0.900013
      ESP Fit Center  427 is at   2.245639  1.918104 -0.900013
      ESP Fit Center  428 is at   2.040661  1.545250 -0.900013
      ESP Fit Center  429 is at   5.016436  1.330753 -1.231509
      ESP Fit Center  430 is at   4.844212  1.707870 -1.231509
      ESP Fit Center  431 is at   4.572719  2.021189 -1.231509
      ESP Fit Center  432 is at   4.223951  2.245329 -1.231509
      ESP Fit Center  433 is at   3.826163  2.362130 -1.231509
      ESP Fit Center  434 is at   3.411582  2.362130 -1.231509
      ESP Fit Center  435 is at   3.013794  2.245329 -1.231509
      ESP Fit Center  436 is at   2.665026  2.021189 -1.231509
      ESP Fit Center  437 is at   2.393533  1.707870 -1.231509
      ESP Fit Center  438 is at   2.221310  1.330753 -1.231509
      ESP Fit Center  439 is at   4.693136  1.336564 -1.505686
      ESP Fit Center  440 is at   4.470255  1.696529 -1.505686
      ESP Fit Center  441 is at   4.132390  1.951673 -1.505686
      ESP Fit Center  442 is at   3.725171  2.067536 -1.505686
      ESP Fit Center  443 is at   3.303597  2.028472 -1.505686
      ESP Fit Center  444 is at   2.924602  1.839755 -1.505686
      ESP Fit Center  445 is at   2.639372  1.526873 -1.505686
      ESP Fit Center  446 is at   4.309271  1.318994 -1.710562
      ESP Fit Center  447 is at   4.017475  1.610791 -1.710562
      ESP Fit Center  448 is at   3.618873  1.717596 -1.710562
      ESP Fit Center  449 is at   3.220271  1.610791 -1.710562
      ESP Fit Center  450 is at   2.928474  1.318994 -1.710562
      ESP Fit Center  451 is at   4.026380  0.920392 -1.837182
      ESP Fit Center  452 is at   3.822626  1.273303 -1.837182
      ESP Fit Center  453 is at   3.415119  1.273303 -1.837182
      ESP Fit Center  454 is at  -4.103136  2.509225  0.209342
      ESP Fit Center  455 is at  -4.397249  2.186598  0.209342
      ESP Fit Center  456 is at  -4.554955  1.779512  0.209342
      ESP Fit Center  457 is at  -4.554955  1.342945  0.209342
      ESP Fit Center  458 is at  -3.710993  2.979673 -0.138597
      ESP Fit Center  459 is at  -4.114704  2.821228 -0.138597
      ESP Fit Center  460 is at  -4.453776  2.550827 -0.138597
      ESP Fit Center  461 is at  -4.698082  2.192496 -0.138597
      ESP Fit Center  462 is at  -4.825915  1.778073 -0.138597
      ESP Fit Center  463 is at  -4.825915  1.344383 -0.138597
      ESP Fit Center  464 is at  -3.387242  3.183984 -0.543781
      ESP Fit Center  465 is at  -3.807242  3.128690 -0.543781
      ESP Fit Center  466 is at  -4.198620  2.966576 -0.543781
      ESP Fit Center  467 is at  -4.534704  2.708690 -0.543781
      ESP Fit Center  468 is at  -4.792590  2.372606 -0.543781
      ESP Fit Center  469 is at  -4.954704  1.981228 -0.543781
      ESP Fit Center  470 is at  -5.009998  1.561228 -0.543781
      ESP Fit Center  471 is at  -4.954704  1.141228 -0.543781
      ESP Fit Center  472 is at  -3.281754  3.237913 -0.978597
      ESP Fit Center  473 is at  -3.702043  3.211471 -0.978597
      ESP Fit Center  474 is at  -4.102552  3.081338 -0.978597
      ESP Fit Center  475 is at  -4.458115  2.855691 -0.978597
      ESP Fit Center  476 is at  -4.746391  2.548708 -0.978597
      ESP Fit Center  477 is at  -4.949267  2.179678 -0.978597
      ESP Fit Center  478 is at  -5.053995  1.771788 -0.978597
      ESP Fit Center  479 is at  -5.053995  1.350669 -0.978597
      ESP Fit Center  480 is at  -4.949267  0.942779 -0.978597
      ESP Fit Center  481 is at  -3.387242  3.183984 -1.413413
      ESP Fit Center  482 is at  -3.807242  3.128690 -1.413413
      ESP Fit Center  483 is at  -4.198620  2.966576 -1.413413
      ESP Fit Center  484 is at  -4.534704  2.708690 -1.413413
      ESP Fit Center  485 is at  -4.792590  2.372606 -1.413413
      ESP Fit Center  486 is at  -4.954704  1.981228 -1.413413
      ESP Fit Center  487 is at  -5.009998  1.561228 -1.413413
      ESP Fit Center  488 is at  -4.954704  1.141228 -1.413413
      ESP Fit Center  489 is at  -4.792590  0.749851 -1.413413
      ESP Fit Center  490 is at  -2.855699  2.915578 -1.818597
      ESP Fit Center  491 is at  -3.278516  3.012083 -1.818597
      ESP Fit Center  492 is at  -3.710993  2.979673 -1.818597
      ESP Fit Center  493 is at  -4.114704  2.821228 -1.818597
      ESP Fit Center  494 is at  -4.453776  2.550827 -1.818597
      ESP Fit Center  495 is at  -4.698082  2.192496 -1.818597
      ESP Fit Center  496 is at  -4.825915  1.778073 -1.818597
      ESP Fit Center  497 is at  -4.825915  1.344383 -1.818597
      ESP Fit Center  498 is at  -4.698082  0.929961 -1.818597
      ESP Fit Center  499 is at  -4.453776  0.571630 -1.818597
      ESP Fit Center  500 is at  -2.857732  2.624628 -2.166537
      ESP Fit Center  501 is at  -3.277633  2.744100 -2.166537
      ESP Fit Center  502 is at  -3.712337  2.703819 -2.166537
      ESP Fit Center  503 is at  -4.103136  2.509225 -2.166537
      ESP Fit Center  504 is at  -4.397249  2.186598 -2.166537
      ESP Fit Center  505 is at  -4.554955  1.779512 -2.166537
      ESP Fit Center  506 is at  -4.554955  1.342945 -2.166537
      ESP Fit Center  507 is at  -4.397249  0.935859 -2.166537
      ESP Fit Center  508 is at  -4.103136  0.613232 -2.166537
[...]
 6397 Fit      -0.006334
 6398 Fit      -0.005964
 6399 Fit      -0.005317
 6400 Fit      -0.004406
 6401 Fit      -0.003316
 6402 Fit      -0.002216
 6403 Fit      -0.001354
 6404 Fit      -0.001022
 6405 Fit      -0.001459
 6406 Fit      -0.004650
 6407 Fit      -0.001876
 6408 Fit      -0.003479
 6409 Fit      -0.004969
 6410 Fit      -0.006112
 6411 Fit      -0.006844
 6412 Fit      -0.007199
 6413 Fit      -0.007264
 6414 Fit      -0.007148
 6415 Fit      -0.006960
 6416 Fit      -0.006789
 6417 Fit      -0.006693
 6418 Fit      -0.006692
 6419 Fit      -0.006762
 6420 Fit      -0.006848
 6421 Fit      -0.006871
 6422 Fit      -0.006747
 6423 Fit      -0.006408
 6424 Fit      -0.005827
 6425 Fit      -0.005035
 6426 Fit      -0.004141
 6427 Fit      -0.003331
 6428 Fit      -0.002839
 6429 Fit      -0.002876
 6430 Fit      -0.003522
 6431 Fit      -0.005030
 6432 Fit      -0.005785
 6433 Fit      -0.006329
 6434 Fit      -0.002839
 6435 Fit      -0.003281
 6436 Fit      -0.004298
 6437 Fit      -0.005461
 6438 Fit      -0.006448
 6439 Fit      -0.007110
 6440 Fit      -0.007439
 6441 Fit      -0.007511
 6442 Fit      -0.007434
 6443 Fit      -0.007318
 6444 Fit      -0.007240
 6445 Fit      -0.007228
 6446 Fit      -0.007261
 6447 Fit      -0.007274
 6448 Fit      -0.007183
 6449 Fit      -0.006911
 6450 Fit      -0.006423
 6451 Fit      -0.005756
 6452 Fit      -0.005033
 6453 Fit      -0.004448
 6454 Fit      -0.004205
 6455 Fit      -0.004421
 6456 Fit      -0.005566
 6457 Fit      -0.005902
 6458 Fit      -0.006046
 6459 Fit      -0.005787
 6460 Fit      -0.005208
 6461 Fit      -0.004697
 6462 Fit      -0.004653
 6463 Fit      -0.005163
 6464 Fit      -0.005985
 6465 Fit      -0.006794
 6466 Fit      -0.007375
 6467 Fit      -0.007677
 6468 Fit      -0.007760
 6469 Fit      -0.007730
 6470 Fit      -0.007681
 6471 Fit      -0.007659
 6472 Fit      -0.007641
 6473 Fit      -0.007560
 6474 Fit      -0.007335
 6475 Fit      -0.006925
 6476 Fit      -0.006370
 6477 Fit      -0.005802
 6478 Fit      -0.005409
 6479 Fit      -0.005334
 6480 Fit      -0.006161
 6481 Fit      -0.006229
 6482 Fit      -0.006159
 6483 Fit      -0.005925
 6484 Fit      -0.005812
 6485 Fit      -0.006091
 6486 Fit      -0.006695
 6487 Fit      -0.007325
 6488 Fit      -0.007752
 6489 Fit      -0.007938
 6490 Fit      -0.007972
 6491 Fit      -0.007950
 6492 Fit      -0.007890
 6493 Fit      -0.007732
 6494 Fit      -0.007410
 6495 Fit      -0.006942
 6496 Fit      -0.006472
 6497 Fit      -0.006190
 6498 Fit      -0.006742
 6499 Fit      -0.006667
 6500 Fit      -0.006614
 6501 Fit      -0.006755
 6502 Fit      -0.007205
 6503 Fit      -0.007702
 6504 Fit      -0.007988
 6505 Fit      -0.008059
 6506 Fit      -0.007985
 6507 Fit      -0.007748
 6508 Fit      -0.007347
 6509 Fit      -0.006950
 6510 Fit      -0.007250
 6511 Fit      -0.007202
 6512 Fit      -0.007518
 6513 Fit      -0.007891
 6514 Fit      -0.007905
 6515 Fit      -0.007582
 6516 Fit      -0.007641
 6517 Fit      -0.010248
 6518 Fit      -0.011289
 6519 Fit      -0.010791
 6520 Fit      -0.010399
 6521 Fit      -0.012380
 6522 Fit      -0.011704
 6523 Fit      -0.011074
 6524 Fit      -0.010752
 6525 Fit      -0.010911
 6526 Fit      -0.005368
 6527 Fit      -0.002827
 6528 Fit      -0.002874
 6529 Fit      -0.003810
 6530 Fit      -0.005696
 6531 Fit      -0.004342
 6532 Fit      -0.004674
 6533 Fit      -0.006027
 6534 Fit      -0.005547
 6535 Fit      -0.006381
 6536 Fit      -0.005355
 6537 Fit      -0.004029
 6538 Fit      -0.006037
 6539 Fit      -0.007036
 6540 Fit      -0.006886
 6541 Fit      -0.005655
 6542 Fit      -0.006713
 6543 Fit      -0.007336
 6544 Fit      -0.008026
 6545 Fit      -0.008579
 6546 Fit      -0.008474
 6547 Fit      -0.007217
 6548 Fit      -0.007254
 6549 Fit      -0.007323
 6550 Fit      -0.007744
 6551 Fit      -0.008488
 6552 Fit      -0.009324
 6553 Fit      -0.009930
 6554 Fit      -0.010028
 6555 Fit      -0.009124
 6556 Fit      -0.008263
 6557 Fit      -0.007422
 6558 Fit      -0.007041
 6559 Fit      -0.007206
 6560 Fit      -0.007862
 6561 Fit      -0.008859
 6562 Fit      -0.009958
 6563 Fit      -0.010884
 6564 Fit      -0.011423
 6565 Fit      -0.007258
 6566 Fit      -0.006431
 6567 Fit      -0.006216
 6568 Fit      -0.006542
 6569 Fit      -0.007339
 6570 Fit      -0.006195
 6571 Fit      -0.005219
 6572 Fit      -0.004894
 6573 Fit      -0.005139
 6574 Fit      -0.003566
 6575 Fit      -0.003116
 6576 Fit      -0.001357
 6577 Fit       0.003047
 6578 Fit       0.001685
 6579 Fit      -0.000684
 6580 Fit      -0.001205
 6581 Fit      -0.000472
 6582 Fit       0.000878
 6583 Fit       0.002823
 6584 Fit       0.000660
 6585 Fit      -0.000003
 6586 Fit       0.000331
 6587 Fit       0.004471
 6588 Fit       0.002016
 6589 Fit       0.000493
 6590 Fit       0.000035
 6591 Fit       0.002249
 6592 Fit       0.000702
 6593 Fit      -0.000358
 6594 Fit      -0.003911
 6595 Fit      -0.000779
 6596 Fit       0.001767
 6597 Fit       0.003253
 6598 Fit       0.003393
 6599 Fit       0.000050
 6600 Fit      -0.000988
 6601 Fit      -0.003287
 6602 Fit      -0.000827
 6603 Fit       0.000365
 6604 Fit      -0.002076
 6605 Fit      -0.002807
 6606 Fit      -0.012016
 6607 Fit      -0.009571
 6608 Fit      -0.018147
 6609 Fit      -0.014014
 6610 Fit      -0.010327
 6611 Fit      -0.007851
 6612 Fit      -0.014319
 6613 Fit      -0.010035
 6614 Fit      -0.007197
 6615 Fit      -0.019078
 6616 Fit      -0.012926
 6617 Fit      -0.008625
 6618 Fit      -0.005759
 6619 Fit      -0.004074
 6620 Fit      -0.016666
 6621 Fit      -0.010939
 6622 Fit      -0.006906
 6623 Fit      -0.004094
 6624 Fit      -0.002234
 6625 Fit      -0.018862
 6626 Fit      -0.012061
 6627 Fit      -0.007265
 6628 Fit      -0.003795
 6629 Fit      -0.001232
 6630 Fit      -0.013061
 6631 Fit      -0.007735
 6632 Fit      -0.003792
 6633 Fit      -0.000711
 6634 Fit       0.001868
 6635 Fit      -0.012758
 6636 Fit      -0.007348
 6637 Fit      -0.003252
 6638 Fit       0.000090
 6639 Fit       0.003117
 6640 Fit      -0.010265
 6641 Fit      -0.005294
 6642 Fit      -0.001364
 6643 Fit       0.002085
 6644 Fit      -0.012425
 6645 Fit      -0.006898
 6646 Fit      -0.002594
 6647 Fit       0.001083
 6648 Fit      -0.008141
 6649 Fit      -0.003873
 6650 Fit      -0.000256
 6651 Fit       0.003153
 6652 Fit      -0.007226
 6653 Fit      -0.003623
 6654 Fit      -0.000364
 6655 Fit      -0.005123
 6656 Fit      -0.002981
 6657 Fit      -0.000530
 6658 Fit      -0.001315
 6659 Fit      -0.004063
 6660 Fit      -0.003045
 6661 Fit      -0.000336
 6662 Fit       0.001724
 6663 Fit      -0.006497
 6664 Fit      -0.006006
 6665 Fit      -0.004518
 6666 Fit      -0.002183
 6667 Fit       0.000635
 6668 Fit       0.003280
 6669 Fit       0.005038
 6670 Fit      -0.008610
 6671 Fit      -0.008217
 6672 Fit      -0.007319
 6673 Fit      -0.005890
 6674 Fit      -0.003860
 6675 Fit      -0.001279
 6676 Fit       0.001596
 6677 Fit       0.004409
 6678 Fit       0.006849
 6679 Fit      -0.010546
 6680 Fit      -0.010322
 6681 Fit      -0.009823
 6682 Fit      -0.009074
 6683 Fit      -0.008019
 6684 Fit      -0.006489
 6685 Fit      -0.004334
 6686 Fit      -0.001597
 6687 Fit       0.001483
 6688 Fit       0.004599
 6689 Fit      -0.012284
 6690 Fit      -0.000982
 6691 Fit       0.023449
 6692 Fit       0.009607
 6693 Fit       0.013387
 6694 Fit       0.017703
 6695 Fit       0.007528
 6696 Fit       0.011337
 6697 Fit       0.015572
 6698 Fit       0.005463
 6699 Fit       0.009052
 6700 Fit       0.012769
 6701 Fit       0.016567
 6702 Fit       0.001676
 6703 Fit       0.005192
 6704 Fit       0.008422
 6705 Fit       0.011066
 6706 Fit       0.012130
 6707 Fit       0.002684
 6708 Fit       0.002206
 6709 Fit       0.004789
 6710 Fit       0.006172
 6711 Fit       0.005516
 6712 Fit      -0.000250
 6713 Fit      -0.003561
 6714 Fit      -0.001216
 6715 Fit       0.001116
 6716 Fit       0.001621
 6717 Fit      -0.002094
 6718 Fit      -0.001371
 6719 Fit      -0.000640
 6720 Fit      -0.002757
 6721 Fit      -0.004050
 6722 Fit      -0.004075
 6723 Fit      -0.002751
 6724 Fit      -0.000134
 6725 Fit      -0.003923
 6726 Fit      -0.005571
 6727 Fit      -0.006519
 6728 Fit      -0.006750
 6729 Fit      -0.006247
 6730 Fit      -0.004883
 6731 Fit      -0.008924
 6732 Fit      -0.009041
 6733 Fit      -0.008702
 6734 Fit      -0.011013
 6735 Fit       0.007379
 6736 Fit       0.001231
 6737 Fit       0.002161
 6738 Fit      -0.002092
 6739 Fit       0.006163
 6740 Fit       0.008969
 6741 Fit       0.003665
 6742 Fit       0.006469
 6743 Fit       0.009122
 6744 Fit       0.011623
 6745 Fit       0.002779
 6746 Fit       0.005665
 6747 Fit       0.008356
 6748 Fit       0.010869
 6749 Fit       0.013323
 6750 Fit       0.003538
 6751 Fit       0.006511
 6752 Fit       0.009195
 6753 Fit       0.011680
 6754 Fit       0.014117
 6755 Fit       0.004225
 6756 Fit       0.007192
 6757 Fit       0.009823
 6758 Fit       0.012244
 6759 Fit       0.014606
 6760 Fit       0.017112
 6761 Fit       0.005797
 6762 Fit       0.008720
 6763 Fit       0.011316
 6764 Fit       0.013745
 6765 Fit       0.016180
 6766 Fit       0.018843
 6767 Fit       0.007288
 6768 Fit       0.010090
 6769 Fit       0.012622
 6770 Fit       0.015055
 6771 Fit       0.017563
 6772 Fit       0.020356
 6773 Fit       0.007699
 6774 Fit       0.010527
 6775 Fit       0.013105
 6776 Fit       0.015616
 6777 Fit       0.018245
 6778 Fit       0.021196
 6779 Fit       0.006015
 6780 Fit       0.009228
 6781 Fit       0.012071
 6782 Fit       0.014786
 6783 Fit       0.017595
 6784 Fit       0.020752
 6785 Fit       0.006570
 6786 Fit       0.009890
 6787 Fit       0.012904
 6788 Fit       0.015910
 6789 Fit       0.019216
 6790 Fit       0.023221
 6791 Fit       0.007147
 6792 Fit       0.010511
 6793 Fit       0.013690
 6794 Fit       0.017033
 6795 Fit       0.020953
 6796 Fit       0.026031
 6797 Fit       0.009280
 6798 Fit       0.012785
 6799 Fit       0.016460
 6800 Fit       0.020785
 6801 Fit       0.007751
 6802 Fit       0.011437
 6803 Fit       0.000945
 6804 Fit      -0.000375
 6805 Fit      -0.000898
 6806 Fit       0.000311
 6807 Fit       0.001876
 6808 Fit       0.002542
 6809 Fit       0.001476
 6810 Fit      -0.002158
 6811 Fit      -0.003337
 6812 Fit      -0.003158
 6813 Fit      -0.001957
 6814 Fit      -0.000451
 6815 Fit       0.001026
 6816 Fit       0.002465
 6817 Fit       0.003640
 6818 Fit       0.004065
 6819 Fit       0.003454
 6820 Fit       0.001932
 6821 Fit      -0.000131
 6822 Fit      -0.004506
 6823 Fit      -0.006191
 6824 Fit      -0.006723
 6825 Fit      -0.006021
 6826 Fit      -0.004524
 6827 Fit      -0.002847
 6828 Fit      -0.001364
 6829 Fit      -0.000068
 6830 Fit       0.001255
 6831 Fit       0.002728
 6832 Fit       0.004085
 6833 Fit       0.002346
 6834 Fit       0.000204
 6835 Fit      -0.002188
 6836 Fit      -0.007556
 6837 Fit      -0.009941
 6838 Fit      -0.011166
 6839 Fit      -0.010914
 6840 Fit      -0.009403
 6841 Fit      -0.007240
 6842 Fit      -0.005081
 6843 Fit      -0.003338
 6844 Fit      -0.002057
 6845 Fit      -0.000989
 6846 Fit       0.000203
 6847 Fit       0.000839
 6848 Fit      -0.001754
 6849 Fit      -0.004641
 6850 Fit      -0.011493
 6851 Fit      -0.014965
 6852 Fit      -0.017145
 6853 Fit      -0.017434
 6854 Fit      -0.015866
 6855 Fit      -0.013057
 6856 Fit      -0.009862
 6857 Fit      -0.007026
 6858 Fit      -0.004968
 6859 Fit      -0.003707
 6860 Fit      -0.002919
 6861 Fit      -0.000808
 6862 Fit      -0.003951
 6863 Fit      -0.007598
 6864 Fit      -0.017179
 6865 Fit      -0.012673
 6866 Fit      -0.008989
 6867 Fit      -0.006552
 6868 Fit      -0.002827
 6869 Fit      -0.006603
 6870 Fit      -0.011262
 6871 Fit      -0.012931
 6872 Fit      -0.008974
 6873 Fit       0.004316
 6874 Fit       0.005016
 6875 Fit       0.003228
 6876 Fit       0.004241
 6877 Fit       0.005422
 6878 Fit       0.006121
 6879 Fit       0.005916
 6880 Fit       0.004935
 6881 Fit       0.001835
 6882 Fit       0.002595
 6883 Fit       0.003869
 6884 Fit       0.005399
 6885 Fit       0.006747
 6886 Fit       0.006650
 6887 Fit       0.005347
 6888 Fit       0.003851
 6889 Fit       0.000163
 6890 Fit       0.000886
 6891 Fit       0.002246
 6892 Fit       0.004106
 6893 Fit       0.006115
 6894 Fit       0.006098
 6895 Fit       0.004340
 6896 Fit       0.003109
 6897 Fit       0.005609
 6898 Fit       0.004726
 6899 Fit       0.002772
 6900 Fit       0.005770
 6901 Fit       0.003603
 6902 Fit       0.001391
 6903 Fit      -0.001002
 6904 Fit       0.004597
 6905 Fit       0.002267
 6906 Fit      -0.000131
 6907 Fit      -0.002855
 6908 Fit       0.006054
 6909 Fit       0.003511
 6910 Fit       0.007233
 6911 Fit       0.007756
 6912 Fit       0.007323
 6913 Fit       0.007383
 6914 Fit       0.008271
 6915 Fit       0.008730
 6916 Fit       0.008543
 6917 Fit       0.007773
 6918 Fit       0.006719
 6919 Fit       0.007406
 6920 Fit       0.008564
 6921 Fit       0.009422
 6922 Fit       0.009818
 6923 Fit       0.009734
 6924 Fit       0.009203
 6925 Fit       0.008289
 6926 Fit       0.007120
 6927 Fit       0.008136
 6928 Fit       0.009524
 6929 Fit       0.010464
 6930 Fit       0.010936
 6931 Fit       0.010996
 6932 Fit       0.010688
 6933 Fit       0.010035
 6934 Fit       0.009057
 6935 Fit       0.007806
 6936 Fit       0.006398
 6937 Fit       0.010240
 6938 Fit       0.011440
 6939 Fit       0.012068
 6940 Fit       0.012277
 6941 Fit       0.012168
 6942 Fit       0.011774
 6943 Fit       0.011093
 6944 Fit       0.010110
 6945 Fit       0.008829
 6946 Fit       0.007292
 6947 Fit       0.013518
 6948 Fit       0.013697
 6949 Fit       0.013621
 6950 Fit       0.013357
 6951 Fit       0.012899
 6952 Fit       0.012213
 6953 Fit       0.011258
 6954 Fit       0.009998
 6955 Fit       0.008428
 6956 Fit       0.006589
 6957 Fit       0.015526
 6958 Fit       0.015196
 6959 Fit       0.014827
 6960 Fit       0.014377
 6961 Fit       0.013773
 6962 Fit       0.012938
 6963 Fit       0.011797
 6964 Fit       0.010283
 6965 Fit       0.008360
 6966 Fit       0.017104
 6967 Fit       0.016471
 6968 Fit       0.015953
 6969 Fit       0.015411
 6970 Fit       0.014722
 6971 Fit       0.013771
 6972 Fit       0.012446
 6973 Fit       0.010629
 6974 Fit       0.018674
 6975 Fit       0.017868
 6976 Fit       0.017310
 6977 Fit       0.016778
 6978 Fit       0.016102
 6979 Fit       0.015125
 6980 Fit       0.013668
 6981 Fit       0.019810
 6982 Fit       0.019170
 6983 Fit       0.018739
 6984 Fit       0.018253
 6985 Fit       0.017480
 6986 Fit       0.021426
 6987 Fit       0.021109
 6988 Fit       0.020978
 6989 Fit       0.020713
 6990 Fit       0.023703
 6991 Fit       0.024077
 6992 Fit       0.026720
 6993 Fit      -0.005290
 6994 Fit       0.001206
 6995 Fit      -0.000977
 6996 Fit      -0.003455
 6997 Fit       0.004665
 6998 Fit       0.002527
 6999 Fit       0.000687
 7000 Fit      -0.001126
 7001 Fit       0.008521
 7002 Fit       0.006098
 7003 Fit       0.004120
 7004 Fit       0.002521
 7005 Fit       0.001161
 7006 Fit      -0.000234
 7007 Fit       0.010658
 7008 Fit       0.008299
 7009 Fit       0.006354
 7010 Fit       0.004820
 7011 Fit       0.003648
 7012 Fit       0.002710
 7013 Fit       0.015638
 7014 Fit       0.013129
 7015 Fit       0.010901
 7016 Fit       0.009011
 7017 Fit       0.007500
 7018 Fit       0.006376
 7019 Fit       0.005593
 7020 Fit       0.018754
 7021 Fit       0.016481
 7022 Fit       0.014350
 7023 Fit       0.012453
 7024 Fit       0.010872
 7025 Fit       0.009659
 7026 Fit       0.008816
 7027 Fit       0.008293
 7028 Fit       0.023055
 7029 Fit       0.021104
 7030 Fit       0.019084
 7031 Fit       0.017118
 7032 Fit       0.015341
 7033 Fit       0.013869
 7034 Fit       0.012771
 7035 Fit       0.012048
 7036 Fit       0.020333
 7037 Fit       0.018699
 7038 Fit       0.017370
 7039 Fit       0.016438
 7040 Fit       0.021279
 7041 Fit       0.009024
 7042 Fit       0.007782
 7043 Fit       0.008594
 7044 Fit       0.011349
 7045 Fit       0.012853
 7046 Fit       0.013747
 7047 Fit       0.017479
 7048 Fit       0.027843
 7049 Fit       0.026828
 7050 Fit       0.025762
 7051 Fit       0.024621
 7052 Fit       0.023406
 7053 Fit       0.022146
 7054 Fit       0.026583
 7055 Fit       0.026627
 7056 Fit       0.026360
 7057 Fit       0.025886
 7058 Fit       0.025262
 7059 Fit       0.024540
 7060 Fit       0.023787
 7061 Fit       0.023099
 7062 Fit       0.022615
 7063 Fit       0.024628
 7064 Fit       0.025702
 7065 Fit       0.026180
 7066 Fit       0.026284
 7067 Fit       0.026141
 7068 Fit       0.025846
 7069 Fit       0.025497
 7070 Fit       0.025222
 7071 Fit       0.025207
 7072 Fit       0.023931
 7073 Fit       0.025346
 7074 Fit       0.026154
 7075 Fit       0.026557
 7076 Fit       0.026701
 7077 Fit       0.026719
 7078 Fit       0.026760
 7079 Fit       0.027040
 7080 Fit       0.018486
 7081 Fit       0.021632
 7082 Fit       0.023869
 7083 Fit       0.025375
 7084 Fit       0.026343
 7085 Fit       0.026938
 7086 Fit       0.027313
 7087 Fit       0.027630
 7088 Fit       0.028098
 7089 Fit       0.012937
 7090 Fit       0.016517
 7091 Fit       0.019848
 7092 Fit       0.022556
 7093 Fit       0.024568
 7094 Fit       0.025977
 7095 Fit       0.026932
 7096 Fit       0.027607
 7097 Fit       0.028199
 7098 Fit       0.013553
 7099 Fit       0.015812
 7100 Fit       0.018596
 7101 Fit       0.021324
 7102 Fit       0.023625
 7103 Fit       0.025383
 7104 Fit       0.026654
 7105 Fit       0.027585
 7106 Fit       0.028382
 7107 Fit       0.017527
 7108 Fit       0.019445
 7109 Fit       0.021776
 7110 Fit       0.023949
 7111 Fit       0.025683
 7112 Fit       0.026968
 7113 Fit       0.027948
 7114 Fit       0.020753
 7115 Fit       0.020253
 7116 Fit       0.021508
 7117 Fit       0.023545
 7118 Fit       0.025455
 7119 Fit       0.026856
 7120 Fit       0.023346
 7121 Fit       0.025180
 -----------------------------------------------------------------
 Leave Link  602 at Wed Nov 29 18:18:37 2017, MaxMem=  2147483648 cpu:         1.5

 Test job not archived.
 1\1\GINC-CSP-012\FOpt\RHF\6-31G(d)\C9H10Cl1N1O1\SONGLIN3\29-Nov-2017\0
 \\#HF/6-31G* SCF=tight Test Pop=MK iop(6/33=2) iop(6/42=6) opt\\remark
  line goes here\\0,1\H,18.3704838965,-12.8321510714,20.3211826857\C,17
 .8740098565,-12.1244711603,20.9695524793\H,18.5118066912,-11.262316233
 5,21.1259607931\H,17.7027467804,-12.6040235041,21.9284144952\C,16.5375
 232603,-11.7596198076,20.3597836789\O,15.925078171,-12.5288937865,19.6
 689981476\H,10.9945666222,-10.7498948414,24.0283961303\H,11.8470313759
 ,-12.6804655604,22.7477826742\C,11.7465093533,-10.6166519693,23.274101
 7934\C,12.2325114017,-11.6965506033,22.5500346517\Cl,11.6495547519,-7.
 9849947694,23.8986758826\C,12.2459508421,-9.3599780908,23.0035608893\C
 ,13.1985215145,-11.5172771209,21.5783347277\H,13.5684293373,-12.357584
 162,21.019823829\C,13.214445916,-9.1645179705,22.0322869347\C,13.69994
 8775,-10.2452393494,21.3129955876\H,13.5788651391,-8.1717193665,21.841
 6364615\H,14.509183033,-10.5744893636,19.3541079392\C,14.7713584785,-1
 0.0457477393,20.2575297886\H,14.8534229925,-8.9936282995,20.012300791\
 N,16.0818603557,-10.5195325142,20.6613928954\H,16.5771914553,-9.986252
 7162,21.3391467441\\Version=ES64L-G09RevD.01\State=1-A\HF=-935.4549717
 \RMSD=8.969e-09\RMSF=6.573e-06\Dipole=0.8552897,0.3098912,0.4596311\Qu
 adrupole=7.0138813,-2.2292848,-4.7845966,5.7435033,2.1005683,-8.022272
 2\PG=C01 [X(C9H10Cl1N1O1)]\\@


 IF AT FIRST YOU DON'T SUCCEED, TRY LOOKING IN 
 THE WASTEBASKET FOR THE DIRECTIONS.
 Job cpu time:       0 days  0 hours 10 minutes 24.2 seconds.
 File lengths (MBytes):  RWF=    134 Int=      0 D2E=      0 Chk=      5 Scr=      2
 Normal termination of Gaussian 09 at Wed Nov 29 18:18:37 2017.
