 Entering Gaussian System, Link 0=g09
 Initial command:
 /opt/software/Gaussian/g09/l1.exe "/mnt/ls15/scratch/users/songlin3/Gau-24456.inp" -scrdir="/mnt/ls15/scratch/users/songlin3/"
 Entering Link 1 = /opt/software/Gaussian/g09/l1.exe PID=     24457.
  
 Copyright (c) 1988,1990,1992,1993,1995,1998,2003,2009,2013,
            Gaussian, Inc.  All Rights Reserved.
  
 This is part of the Gaussian(R) 09 program.  It is based on
 the Gaussian(R) 03 system (copyright 2003, Gaussian, Inc.),
 the Gaussian(R) 98 system (copyright 1998, Gaussian, Inc.),
 the Gaussian(R) 94 system (copyright 1995, Gaussian, Inc.),
 the Gaussian 92(TM) system (copyright 1992, Gaussian, Inc.),
 the Gaussian 90(TM) system (copyright 1990, Gaussian, Inc.),
 the Gaussian 88(TM) system (copyright 1988, Gaussian, Inc.),
 the Gaussian 86(TM) system (copyright 1986, Carnegie Mellon
 University), and the Gaussian 82(TM) system (copyright 1983,
 Carnegie Mellon University). Gaussian is a federally registered
 trademark of Gaussian, Inc.
  
 This software contains proprietary and confidential information,
 including trade secrets, belonging to Gaussian, Inc.
  
 This software is provided under written license and may be
 used, copied, transmitted, or stored only in accord with that
 written license.
  
 The following legend is applicable only to US Government
 contracts under FAR:
  
                    RESTRICTED RIGHTS LEGEND
  
 Use, reproduction and disclosure by the US Government is
 subject to restrictions as set forth in subparagraphs (a)
 and (c) of the Commercial Computer Software - Restricted
 Rights clause in FAR 52.227-19.
  
 Gaussian, Inc.
 340 Quinnipiac St., Bldg. 40, Wallingford CT 06492
  
  
 ---------------------------------------------------------------
 Warning -- This program may not be used in any manner that
 competes with the business of Gaussian, Inc. or will provide
 assistance to any competitor of Gaussian, Inc.  The licensee
 of this program is prohibited from giving any competitor of
 Gaussian, Inc. access to this program.  By using this program,
 the user acknowledges that Gaussian, Inc. is engaged in the
 business of creating and licensing software in the field of
 computational chemistry and represents and warrants to the
 licensee that it is not a competitor of Gaussian, Inc. and that
 it will not use this program in any manner prohibited above.
 ---------------------------------------------------------------
  

 Cite this work as:
 Gaussian 09, Revision D.01,
 M. J. Frisch, G. W. Trucks, H. B. Schlegel, G. E. Scuseria, 
 M. A. Robb, J. R. Cheeseman, G. Scalmani, V. Barone, B. Mennucci, 
 G. A. Petersson, H. Nakatsuji, M. Caricato, X. Li, H. P. Hratchian, 
 A. F. Izmaylov, J. Bloino, G. Zheng, J. L. Sonnenberg, M. Hada, 
 M. Ehara, K. Toyota, R. Fukuda, J. Hasegawa, M. Ishida, T. Nakajima, 
 Y. Honda, O. Kitao, H. Nakai, T. Vreven, J. A. Montgomery, Jr., 
 J. E. Peralta, F. Ogliaro, M. Bearpark, J. J. Heyd, E. Brothers, 
 K. N. Kudin, V. N. Staroverov, T. Keith, R. Kobayashi, J. Normand, 
 K. Raghavachari, A. Rendell, J. C. Burant, S. S. Iyengar, J. Tomasi, 
 M. Cossi, N. Rega, J. M. Millam, M. Klene, J. E. Knox, J. B. Cross, 
 V. Bakken, C. Adamo, J. Jaramillo, R. Gomperts, R. E. Stratmann, 
 O. Yazyev, A. J. Austin, R. Cammi, C. Pomelli, J. W. Ochterski, 
 R. L. Martin, K. Morokuma, V. G. Zakrzewski, G. A. Voth, 
 P. Salvador, J. J. Dannenberg, S. Dapprich, A. D. Daniels, 
 O. Farkas, J. B. Foresman, J. V. Ortiz, J. Cioslowski, 
 and D. J. Fox, Gaussian, Inc., Wallingford CT, 2013.
 
 ******************************************
 Gaussian 09:  ES64L-G09RevD.01 24-Apr-2013
                29-Nov-2017 
 ******************************************
 %RWF=myrwf
 %NoSave
 %chk=esp.chk
 %NprocShared=4
 Will use up to    4 processors via shared memory.
 %Mem=16GB
 ----------------------------------------------------------------------
 #HF/6-31G* SCF=tight Test Pop=MK iop(6/33=2) iop(6/42=6) opt # iop(6/5
 0=1)
 ----------------------------------------------------------------------
 1/18=20,19=15,38=1/1,3;
 2/9=110,12=2,17=6,18=5,40=1/2;
 3/5=1,6=6,7=1,11=9,16=1,25=1,30=1,71=1/1,2,3;
 4//1;
 5/5=2,32=2,38=5/2;
 6/7=2,8=2,9=2,10=2,15=8,20=1,28=1,33=2,42=6,50=1/1,2;
 7//1,2,3,16;
 1/18=20,19=15/3(2);
 2/9=110/2;
 99//99;
 2/9=110/2;
 3/5=1,6=6,7=1,11=9,16=1,25=1,30=1,71=1/1,2,3;
 4/5=5,16=3,69=1/1;
 5/5=2,32=2,38=5/2;
 7//1,2,3,16;
 1/18=20,19=15/3(-5);
 2/9=110/2;
 6/7=2,8=2,9=2,10=2,15=8,19=2,20=1,28=1,33=2,42=6,50=1/1,2;
 99/9=1/99;
 ---------------------
 remark line goes here
 ---------------------
 Symbolic Z-matrix:
 Charge =  0 Multiplicity = 1
 H                     5.22281  -0.85987  -1.08816 
 C                     4.20862  -0.58584  -1.34105 
 H                     3.80671  -1.29586  -2.05499 
 H                     4.22568   0.39462  -1.80623 
 C                     3.39257  -0.50599  -0.06845 
 O                     3.88316  -0.20074   0.98274 
 H                    -3.48279   1.62273  -0.68118 
 H                    -1.39637   2.96618  -0.50377 
 C                    -2.56333   1.16584  -0.3693 
 C                    -1.40268   1.91766  -0.2734 
 Cl                   -3.97453  -1.13588  -0.17188 
 C                    -2.52295  -0.17758  -0.05616 
 C                    -0.23916   1.306     0.13001 
 F                     0.86477   2.0381    0.22296 
 C                    -1.34242  -0.77823   0.34957 
 C                    -0.17252  -0.04126   0.44959 
 H                    -1.33606  -1.82458   0.59182 
 H                     1.60345  -0.08713   1.65559 
 C                     1.1304   -0.67456   0.88437 
 H                     0.92619  -1.656     1.29991 
 N                     2.06997  -0.7692   -0.21294 
 H                     1.72828  -1.05898  -1.10016 
 

 GradGradGradGradGradGradGradGradGradGradGradGradGradGradGradGradGradGrad
 Berny optimization.
 Initialization pass.
                           ----------------------------
                           !    Initial Parameters    !
                           ! (Angstroms and Degrees)  !
 --------------------------                            --------------------------
 ! Name  Definition              Value          Derivative Info.                !
 --------------------------------------------------------------------------------
 ! R1    R(1,2)                  1.0806         estimate D2E/DX2                !
 ! R2    R(2,3)                  1.0841         estimate D2E/DX2                !
 ! R3    R(2,4)                  1.0854         estimate D2E/DX2                !
 ! R4    R(2,5)                  1.5139         estimate D2E/DX2                !
 ! R5    R(5,6)                  1.1995         estimate D2E/DX2                !
 ! R6    R(5,21)                 1.3563         estimate D2E/DX2                !
 ! R7    R(7,9)                  1.073          estimate D2E/DX2                !
 ! R8    R(8,10)                 1.0735         estimate D2E/DX2                !
 ! R9    R(9,10)                 1.3862         estimate D2E/DX2                !
 ! R10   R(9,12)                 1.38           estimate D2E/DX2                !
 ! R11   R(10,13)                1.375          estimate D2E/DX2                !
 ! R12   R(11,12)                1.7432         estimate D2E/DX2                !
 ! R13   R(12,15)                1.3853         estimate D2E/DX2                !
 ! R14   R(13,14)                1.3279         estimate D2E/DX2                !
 ! R15   R(13,16)                1.3862         estimate D2E/DX2                !
 ! R16   R(15,16)                1.3863         estimate D2E/DX2                !
 ! R17   R(15,17)                1.074          estimate D2E/DX2                !
 ! R18   R(16,19)                1.5125         estimate D2E/DX2                !
 ! R19   R(18,19)                1.0787         estimate D2E/DX2                !
 ! R20   R(19,20)                1.0852         estimate D2E/DX2                !
 ! R21   R(19,21)                1.4477         estimate D2E/DX2                !
 ! R22   R(21,22)                0.9939         estimate D2E/DX2                !
 ! A1    A(1,2,3)              109.632          estimate D2E/DX2                !
 ! A2    A(1,2,4)              108.339          estimate D2E/DX2                !
 ! A3    A(1,2,5)              108.8186         estimate D2E/DX2                !
 ! A4    A(3,2,4)              108.3734         estimate D2E/DX2                !
 ! A5    A(3,2,5)              112.8477         estimate D2E/DX2                !
 ! A6    A(4,2,5)              108.7305         estimate D2E/DX2                !
 ! A7    A(2,5,6)              121.9807         estimate D2E/DX2                !
 ! A8    A(2,5,21)             115.2064         estimate D2E/DX2                !
 ! A9    A(6,5,21)             122.7913         estimate D2E/DX2                !
 ! A10   A(7,9,10)             120.4398         estimate D2E/DX2                !
 ! A11   A(7,9,12)             120.3653         estimate D2E/DX2                !
 ! A12   A(10,9,12)            119.1948         estimate D2E/DX2                !
 ! A13   A(8,10,9)             121.3185         estimate D2E/DX2                !
 ! A14   A(8,10,13)            119.5015         estimate D2E/DX2                !
 ! A15   A(9,10,13)            119.1795         estimate D2E/DX2                !
 ! A16   A(9,12,11)            119.7173         estimate D2E/DX2                !
 ! A17   A(9,12,15)            120.8956         estimate D2E/DX2                !
 ! A18   A(11,12,15)           119.387          estimate D2E/DX2                !
 ! A19   A(10,13,14)           118.605          estimate D2E/DX2                !
 ! A20   A(10,13,16)           122.7271         estimate D2E/DX2                !
 ! A21   A(14,13,16)           118.6672         estimate D2E/DX2                !
 ! A22   A(12,15,16)           120.6504         estimate D2E/DX2                !
 ! A23   A(12,15,17)           119.5714         estimate D2E/DX2                !
 ! A24   A(16,15,17)           119.7778         estimate D2E/DX2                !
 ! A25   A(13,16,15)           117.3524         estimate D2E/DX2                !
 ! A26   A(13,16,19)           120.9717         estimate D2E/DX2                !
 ! A27   A(15,16,19)           121.6755         estimate D2E/DX2                !
 ! A28   A(16,19,18)           110.8094         estimate D2E/DX2                !
 ! A29   A(16,19,20)           109.066          estimate D2E/DX2                !
 ! A30   A(16,19,21)           111.6271         estimate D2E/DX2                !
 ! A31   A(18,19,20)           107.5335         estimate D2E/DX2                !
 ! A32   A(18,19,21)           107.031          estimate D2E/DX2                !
 ! A33   A(20,19,21)           110.6864         estimate D2E/DX2                !
 ! A34   A(5,21,19)            122.6478         estimate D2E/DX2                !
 ! A35   A(5,21,22)            119.1383         estimate D2E/DX2                !
 ! A36   A(19,21,22)           118.1993         estimate D2E/DX2                !
 ! D1    D(1,2,5,6)             30.0073         estimate D2E/DX2                !
 ! D2    D(1,2,5,21)          -151.639          estimate D2E/DX2                !
 ! D3    D(3,2,5,6)            151.929          estimate D2E/DX2                !
 ! D4    D(3,2,5,21)           -29.7172         estimate D2E/DX2                !
 ! D5    D(4,2,5,6)            -87.8034         estimate D2E/DX2                !
 ! D6    D(4,2,5,21)            90.5504         estimate D2E/DX2                !
 ! D7    D(2,5,21,19)         -176.8925         estimate D2E/DX2                !
 ! D8    D(2,5,21,22)            4.521          estimate D2E/DX2                !
 ! D9    D(6,5,21,19)            1.4464         estimate D2E/DX2                !
 ! D10   D(6,5,21,22)         -177.1401         estimate D2E/DX2                !
 ! D11   D(7,9,10,8)             0.1921         estimate D2E/DX2                !
 ! D12   D(7,9,10,13)          179.9443         estimate D2E/DX2                !
 ! D13   D(12,9,10,8)         -179.6812         estimate D2E/DX2                !
 ! D14   D(12,9,10,13)           0.071          estimate D2E/DX2                !
 ! D15   D(7,9,12,11)            0.1218         estimate D2E/DX2                !
 ! D16   D(7,9,12,15)         -179.9034         estimate D2E/DX2                !
 ! D17   D(10,9,12,11)         179.9952         estimate D2E/DX2                !
 ! D18   D(10,9,12,15)          -0.03           estimate D2E/DX2                !
 ! D19   D(8,10,13,14)           0.0178         estimate D2E/DX2                !
 ! D20   D(8,10,13,16)         179.703          estimate D2E/DX2                !
 ! D21   D(9,10,13,14)        -179.7389         estimate D2E/DX2                !
 ! D22   D(9,10,13,16)          -0.0537         estimate D2E/DX2                !
 ! D23   D(9,12,15,16)          -0.0311         estimate D2E/DX2                !
 ! D24   D(9,12,15,17)         179.761          estimate D2E/DX2                !
 ! D25   D(11,12,15,16)        179.9438         estimate D2E/DX2                !
 ! D26   D(11,12,15,17)         -0.2641         estimate D2E/DX2                !
 ! D27   D(10,13,16,15)         -0.0064         estimate D2E/DX2                !
 ! D28   D(10,13,16,19)        179.7774         estimate D2E/DX2                !
 ! D29   D(14,13,16,15)        179.6786         estimate D2E/DX2                !
 ! D30   D(14,13,16,19)         -0.5376         estimate D2E/DX2                !
 ! D31   D(12,15,16,13)          0.0487         estimate D2E/DX2                !
 ! D32   D(12,15,16,19)       -179.7335         estimate D2E/DX2                !
 ! D33   D(17,15,16,13)       -179.743          estimate D2E/DX2                !
 ! D34   D(17,15,16,19)          0.4749         estimate D2E/DX2                !
 ! D35   D(13,16,19,18)         48.9673         estimate D2E/DX2                !
 ! D36   D(13,16,19,20)        167.1539         estimate D2E/DX2                !
 ! D37   D(13,16,19,21)        -70.2246         estimate D2E/DX2                !
 ! D38   D(15,16,19,18)       -131.2584         estimate D2E/DX2                !
 ! D39   D(15,16,19,20)        -13.0718         estimate D2E/DX2                !
 ! D40   D(15,16,19,21)        109.5497         estimate D2E/DX2                !
 ! D41   D(16,19,21,5)         138.9831         estimate D2E/DX2                !
 ! D42   D(16,19,21,22)        -42.4179         estimate D2E/DX2                !
 ! D43   D(18,19,21,5)          17.5743         estimate D2E/DX2                !
 ! D44   D(18,19,21,22)       -163.8266         estimate D2E/DX2                !
 ! D45   D(20,19,21,5)         -99.3273         estimate D2E/DX2                !
 ! D46   D(20,19,21,22)         79.2718         estimate D2E/DX2                !
 --------------------------------------------------------------------------------
 Trust Radius=3.00D-01 FncErr=1.00D-07 GrdErr=1.00D-07
 Number of steps in this run=    114 maximum allowed number of steps=    132.
 GradGradGradGradGradGradGradGradGradGradGradGradGradGradGradGradGradGrad

                          Input orientation:                          
 ---------------------------------------------------------------------
 Center     Atomic      Atomic             Coordinates (Angstroms)
 Number     Number       Type             X           Y           Z
 ---------------------------------------------------------------------
      1          1           0        5.222809   -0.859869   -1.088163
      2          6           0        4.208617   -0.585841   -1.341053
      3          1           0        3.806708   -1.295862   -2.054988
      4          1           0        4.225680    0.394622   -1.806234
      5          6           0        3.392571   -0.505992   -0.068453
      6          8           0        3.883157   -0.200742    0.982735
      7          1           0       -3.482794    1.622726   -0.681184
      8          1           0       -1.396370    2.966177   -0.503771
      9          6           0       -2.563329    1.165842   -0.369295
     10          6           0       -1.402683    1.917656   -0.273401
     11         17           0       -3.974532   -1.135879   -0.171876
     12          6           0       -2.522952   -0.177584   -0.056157
     13          6           0       -0.239158    1.306004    0.130009
     14          9           0        0.864773    2.038105    0.222964
     15          6           0       -1.342421   -0.778228    0.349568
     16          6           0       -0.172519   -0.041255    0.449589
     17          1           0       -1.336064   -1.824576    0.591818
     18          1           0        1.603445   -0.087133    1.655590
     19          6           0        1.130396   -0.674562    0.884372
     20          1           0        0.926188   -1.655995    1.299909
     21          7           0        2.069972   -0.769202   -0.212935
     22          1           0        1.728284   -1.058980   -1.100164
 ---------------------------------------------------------------------
                    Distance matrix (angstroms):
                    1          2          3          4          5
     1  H    0.000000
     2  C    1.080569   0.000000
     3  H    1.769232   1.084142   0.000000
     4  H    1.756030   1.085353   1.759304   0.000000
     5  C    2.124808   1.513875   2.177550   2.127219   0.000000
     6  O    2.552985   2.377860   3.229999   2.872304   1.199520
     7  H    9.061812   8.029383   7.971344   7.886352   7.223401
     8  H    7.667703   6.688330   6.902411   6.317970   5.931224
     9  C    8.077390   7.062008   7.034125   6.982136   6.193406
    10  C    7.230189   6.236511   6.374834   6.028904   5.376852
    11  Cl   9.246991   8.284530   8.007459   8.500414   7.394705
    12  C    7.843938   6.865250   6.731305   6.995300   5.924645
    13  C    6.000669   5.052307   5.283271   4.951205   4.063517
    14  F    5.395348   4.529077   4.995937   4.256099   3.598210
    15  C    6.721308   5.805965   5.706432   6.084966   4.761198
    16  C    5.669601   4.764171   4.866333   4.962145   3.632384
    17  H    6.838992   6.001162   5.808031   6.450464   4.953242
    18  H    4.607070   4.001937   4.481493   4.369488   2.519670
    19  C    4.546766   3.799452   4.023493   4.238313   2.460432
    20  H    4.979725   4.346752   4.436488   4.973912   3.045975
    21  N    3.273320   2.424886   2.585881   2.922356   1.356253
    22  H    3.500213   2.536521   2.299489   2.974640   2.034717
                    6          7          8          9         10
     6  O    0.000000
     7  H    7.768584   0.000000
     8  H    6.333442   2.487871   0.000000
     9  C    6.727014   1.073049   2.149670   0.000000
    10  C    5.831431   2.140124   1.073549   1.386189   0.000000
    11  Cl   7.996930   2.848000   4.856330   2.707100   3.993594
    12  C    6.489843   2.133793   3.369388   1.380029   2.385839
    13  C    4.471119   3.358500   2.120611   2.381328   1.375008
    14  F    3.834101   4.459973   2.549947   3.586572   2.324273
    15  C    5.295381   3.377607   3.840790   2.405574   2.767582
    16  C    4.093677   3.873681   3.383985   2.800648   2.423500
    17  H    5.479956   4.255922   4.914801   3.372316   3.841529
    18  H    2.379649   5.852688   4.794208   4.799178   4.095973
    19  C    2.794973   5.386095   4.643971   4.313047   3.804802
    20  H    3.310895   5.840707   5.478322   4.788083   4.546419
    21  N    2.245086   6.064139   5.104230   5.023577   4.391150
    22  H    3.117454   5.875579   5.130403   4.888962   4.398506
                   11         12         13         14         15
    11  Cl   0.000000
    12  C    1.743217   0.000000
    13  C    4.472912   2.729726   0.000000
    14  F    5.800771   4.057569   1.327884   0.000000
    15  C    2.706996   1.385294   2.368421   3.580428   0.000000
    16  C    4.004962   2.408091   1.386246   2.334753   1.386291
    17  H    2.831792   2.130999   3.349179   4.460946   1.074044
    18  H    5.962661   4.468267   2.768287   2.667338   3.295669
    19  C    5.233427   3.805067   2.523367   2.804742   2.532111
    20  H    5.143319   3.990135   3.391185   3.848371   2.611553
    21  N    6.055755   4.633524   3.123487   3.086014   3.458456
    22  H    5.778386   4.465402   3.313201   3.476817   3.407312
                   16         17         18         19         20
    16  C    0.000000
    17  H    2.134081   0.000000
    18  H    2.147229   3.576455   0.000000
    19  C    1.512515   2.737069   1.078715   0.000000
    20  H    2.130161   2.376467   1.745427   1.085165   0.000000
    21  N    2.449002   3.655478   2.043098   1.447702   2.093643
    22  H    2.655287   3.583179   2.924765   2.107992   2.600026
                   21         22
    21  N    0.000000
    22  H    0.993930   0.000000
 Stoichiometry    C9H9ClFNO
 Framework group  C1[X(C9H9ClFNO)]
 Deg. of freedom    60
 Full point group                 C1      NOp   1
 Largest Abelian subgroup         C1      NOp   1
 Largest concise Abelian subgroup C1      NOp   1
                         Standard orientation:                         
 ---------------------------------------------------------------------
 Center     Atomic      Atomic             Coordinates (Angstroms)
 Number     Number       Type             X           Y           Z
 ---------------------------------------------------------------------
      1          1           0       -5.222809   -0.859869    1.088163
      2          6           0       -4.208617   -0.585841    1.341053
      3          1           0       -3.806708   -1.295862    2.054988
      4          1           0       -4.225680    0.394622    1.806234
      5          6           0       -3.392571   -0.505992    0.068453
      6          8           0       -3.883157   -0.200742   -0.982735
      7          1           0        3.482794    1.622726    0.681184
      8          1           0        1.396370    2.966177    0.503771
      9          6           0        2.563329    1.165842    0.369295
     10          6           0        1.402683    1.917656    0.273401
     11         17           0        3.974532   -1.135879    0.171876
     12          6           0        2.522952   -0.177584    0.056157
     13          6           0        0.239158    1.306004   -0.130009
     14          9           0       -0.864773    2.038105   -0.222964
     15          6           0        1.342421   -0.778228   -0.349568
     16          6           0        0.172519   -0.041255   -0.449589
     17          1           0        1.336064   -1.824576   -0.591818
     18          1           0       -1.603445   -0.087133   -1.655590
     19          6           0       -1.130396   -0.674562   -0.884372
     20          1           0       -0.926188   -1.655995   -1.299909
     21          7           0       -2.069972   -0.769202    0.212935
     22          1           0       -1.728284   -1.058980    1.100164
 ---------------------------------------------------------------------
 Rotational constants (GHZ):      1.5502677      0.3181517      0.2851038
 Standard basis: 6-31G(d) (6D, 7F)
 There are   217 symmetry adapted cartesian basis functions of A   symmetry.
 There are   217 symmetry adapted basis functions of A   symmetry.
   217 basis functions,   424 primitive gaussians,   217 cartesian basis functions
    52 alpha electrons       52 beta electrons
       nuclear repulsion energy       847.8208253797 Hartrees.
 NAtoms=   22 NActive=   22 NUniq=   22 SFac= 1.00D+00 NAtFMM=   60 NAOKFM=F Big=F
 Integral buffers will be    131072 words long.
 Raffenetti 1 integral format.
 Two-electron integral symmetry is turned on.
 One-electron integrals computed using PRISM.
 NBasis=   217 RedAO= T EigKep=  3.89D-04  NBF=   217
 NBsUse=   217 1.00D-06 EigRej= -1.00D+00 NBFU=   217
 ExpMin= 1.43D-01 ExpMax= 2.52D+04 ExpMxC= 3.78D+03 IAcc=1 IRadAn=         1 AccDes= 0.00D+00
 Harris functional with IExCor=  205 and IRadAn=       1 diagonalized for initial guess.
 HarFok:  IExCor=  205 AccDes= 0.00D+00 IRadAn=         1 IDoV= 1 UseB2=F ITyADJ=14
 ICtDFT=  3500011 ScaDFX=  1.000000  1.000000  1.000000  1.000000
 FoFCou: FMM=F IPFlag=           0 FMFlag=      100000 FMFlg1=           0
         NFxFlg=           0 DoJE=T BraDBF=F KetDBF=T FulRan=T
         wScrn=  0.000000 ICntrl=     500 IOpCl=  0 I1Cent=   200000004 NGrid=           0
         NMat0=    1 NMatS0=      1 NMatT0=    0 NMatD0=    1 NMtDS0=    0 NMtDT0=    0
 Petite list used in FoFCou.
 Keep R1 ints in memory in canonical form, NReq=285086791.
 Requested convergence on RMS density matrix=1.00D-08 within 128 cycles.
 Requested convergence on MAX density matrix=1.00D-06.
 Requested convergence on             energy=1.00D-06.
 No special actions if energy rises.
 SCF Done:  E(RHF) =  -1034.30287376     A.U. after   15 cycles
            NFock= 15  Conv=0.53D-08     -V/T= 2.0010

 **********************************************************************

            Population analysis using the SCF density.

 **********************************************************************

 Orbital symmetries:
 BldTbl:  Degeneracy threshold= 1.00D-02
       Occupied  (A) (A) (A) (A) (A) (A) (A) (A) (A) (A) (A) (A)
                 (A) (A) (A) (A) (A) (A) (A) (A) (A) (A) (A) (A)
                 (A) (A) (A) (A) (A) (A) (A) (A) (A) (A) (A) (A)
                 (A) (A) (A) (A) (A) (A) (A) (A) (A) (A) (A) (A)
                 (A) (A) (A) (A)
       Virtual   (A) (A) (A) (A) (A) (A) (A) (A) (A) (A) (A) (A)
                 (A) (A) (A) (A) (A) (A) (A) (A) (A) (A) (A) (A)
                 (A) (A) (A) (A) (A) (A) (A) (A) (A) (A) (A) (A)
                 (A) (A) (A) (A) (A) (A) (A) (A) (A) (A) (A) (A)
                 (A) (A) (A) (A) (A) (A) (A) (A) (A) (A) (A) (A)
                 (A) (A) (A) (A) (A) (A) (A) (A) (A) (A) (A) (A)
                 (A) (A) (A) (A) (A) (A) (A) (A) (A) (A) (A) (A)
                 (A) (A) (A) (A) (A) (A) (A) (A) (A) (A) (A) (A)
                 (A) (A) (A) (A) (A) (A) (A) (A) (A) (A) (A) (A)
                 (A) (A) (A) (A) (A) (A) (A) (A) (A) (A) (A) (A)
                 (A) (A) (A) (A) (A) (A) (A) (A) (A) (A) (A) (A)
                 (A) (A) (A) (A) (A) (A) (A) (A) (A) (A) (A) (A)
                 (A) (A) (A) (A) (A) (A) (A) (A) (A) (A) (A) (A)
                 (A) (A) (A) (A) (A) (A) (A) (A) (A)
 The electronic state is 1-A.
 Alpha  occ. eigenvalues -- -104.83539 -26.32382 -20.52049 -15.58904 -11.34848
 Alpha  occ. eigenvalues --  -11.34103 -11.31252 -11.27902 -11.26783 -11.26751
 Alpha  occ. eigenvalues --  -11.26622 -11.25919 -11.23319 -10.56869  -8.03809
 Alpha  occ. eigenvalues --   -8.03476  -8.03470  -1.64210  -1.39014  -1.24238
 Alpha  occ. eigenvalues --   -1.20746  -1.13544  -1.07370  -1.01873  -1.00584
 Alpha  occ. eigenvalues --   -0.94514  -0.87172  -0.83142  -0.79781  -0.76069
 Alpha  occ. eigenvalues --   -0.73173  -0.70542  -0.69089  -0.66646  -0.65854
 Alpha  occ. eigenvalues --   -0.63769  -0.63033  -0.62473  -0.59877  -0.58559
 Alpha  occ. eigenvalues --   -0.57544  -0.56365  -0.55039  -0.53751  -0.52779
 Alpha  occ. eigenvalues --   -0.50760  -0.47425  -0.46272  -0.41959  -0.39556
 Alpha  occ. eigenvalues --   -0.36516  -0.33952
 Alpha virt. eigenvalues --    0.11096   0.12503   0.18686   0.20548   0.22263
 Alpha virt. eigenvalues --    0.25743   0.26651   0.28157   0.29706   0.30585
 Alpha virt. eigenvalues --    0.31195   0.32220   0.33515   0.34646   0.38363
 Alpha virt. eigenvalues --    0.39589   0.40436   0.42843   0.44815   0.45525
 Alpha virt. eigenvalues --    0.49528   0.50207   0.52450   0.59227   0.59761
 Alpha virt. eigenvalues --    0.61072   0.62571   0.62834   0.67782   0.69957
 Alpha virt. eigenvalues --    0.71668   0.72222   0.73426   0.74636   0.75533
 Alpha virt. eigenvalues --    0.79316   0.79773   0.79891   0.81549   0.82675
 Alpha virt. eigenvalues --    0.83292   0.84439   0.85460   0.87792   0.88317
 Alpha virt. eigenvalues --    0.89524   0.93609   0.96305   0.97492   0.98958
 Alpha virt. eigenvalues --    0.99951   1.02716   1.04891   1.07625   1.07865
 Alpha virt. eigenvalues --    1.08268   1.08542   1.12055   1.13517   1.13682
 Alpha virt. eigenvalues --    1.14355   1.16450   1.16658   1.18335   1.18678
 Alpha virt. eigenvalues --    1.19386   1.19970   1.20513   1.21771   1.23142
 Alpha virt. eigenvalues --    1.26093   1.28777   1.31215   1.34621   1.36189
 Alpha virt. eigenvalues --    1.39064   1.41069   1.45279   1.45713   1.47007
 Alpha virt. eigenvalues --    1.49465   1.54577   1.55110   1.57324   1.59668
 Alpha virt. eigenvalues --    1.61657   1.65428   1.66471   1.67881   1.69015
 Alpha virt. eigenvalues --    1.71351   1.73114   1.74724   1.77099   1.78969
 Alpha virt. eigenvalues --    1.82211   1.85790   1.93686   2.00121   2.02553
 Alpha virt. eigenvalues --    2.04321   2.06671   2.10028   2.10210   2.11381
 Alpha virt. eigenvalues --    2.12268   2.13598   2.17076   2.19415   2.22056
 Alpha virt. eigenvalues --    2.24575   2.26150   2.26505   2.28700   2.32375
 Alpha virt. eigenvalues --    2.33926   2.38771   2.39916   2.42911   2.43389
 Alpha virt. eigenvalues --    2.47126   2.51318   2.53574   2.54237   2.55359
 Alpha virt. eigenvalues --    2.58781   2.61129   2.64368   2.65430   2.67600
 Alpha virt. eigenvalues --    2.68543   2.72468   2.76820   2.79356   2.86623
 Alpha virt. eigenvalues --    2.88102   2.94402   2.96761   2.99253   3.04878
 Alpha virt. eigenvalues --    3.06091   3.07416   3.08705   3.12139   3.18372
 Alpha virt. eigenvalues --    3.25061   3.30002   3.37771   3.48157   3.53758
 Alpha virt. eigenvalues --    3.58027   3.78183   4.38595   4.47480   4.47788
 Alpha virt. eigenvalues --    4.50815   4.54626   4.62445   4.66236   4.72977
 Alpha virt. eigenvalues --    4.76931   4.84082   4.92990   5.10154   5.98268
          Condensed to atoms (all electrons):
               1          2          3          4          5          6
     1  H    0.467363   0.384139  -0.022267  -0.017859  -0.030895   0.002626
     2  C    0.384139   5.260742   0.373958   0.377055   0.372793  -0.072905
     3  H   -0.022267   0.373958   0.533121  -0.024064  -0.037258   0.002443
     4  H   -0.017859   0.377055  -0.024064   0.485568  -0.025977   0.000065
     5  C   -0.030895   0.372793  -0.037258  -0.025977   4.131377   0.616730
     6  O    0.002626  -0.072905   0.002443   0.000065   0.616730   8.143378
     7  H    0.000000   0.000000   0.000000   0.000000   0.000000   0.000000
     8  H    0.000000   0.000000   0.000000   0.000000   0.000000   0.000000
     9  C    0.000000   0.000000   0.000000   0.000000  -0.000001   0.000000
    10  C    0.000000   0.000000   0.000000   0.000000   0.000013   0.000000
    11  Cl   0.000000   0.000000   0.000000   0.000000   0.000000   0.000000
    12  C    0.000000   0.000000   0.000000   0.000000   0.000002   0.000000
    13  C    0.000000  -0.000012  -0.000002   0.000002   0.000433   0.000077
    14  F    0.000000  -0.000005   0.000000   0.000010   0.001107  -0.000069
    15  C    0.000000  -0.000003   0.000000   0.000000  -0.000129  -0.000010
    16  C    0.000000  -0.000124  -0.000027   0.000021   0.002112   0.000380
    17  H    0.000000   0.000000   0.000000   0.000000  -0.000001   0.000000
    18  H   -0.000011   0.000437  -0.000018  -0.000006  -0.001350   0.009263
    19  C   -0.000109   0.004630  -0.000001  -0.000157  -0.023045   0.003268
    20  H    0.000009  -0.000032  -0.000010  -0.000005  -0.000564   0.000600
    21  N    0.003732  -0.118457   0.005212   0.000389   0.258871  -0.104872
    22  H   -0.000020  -0.000598   0.001057   0.000123  -0.015713   0.002393
               7          8          9         10         11         12
     1  H    0.000000   0.000000   0.000000   0.000000   0.000000   0.000000
     2  C    0.000000   0.000000   0.000000   0.000000   0.000000   0.000000
     3  H    0.000000   0.000000   0.000000   0.000000   0.000000   0.000000
     4  H    0.000000   0.000000   0.000000   0.000000   0.000000   0.000000
     5  C    0.000000   0.000000  -0.000001   0.000013   0.000000   0.000002
     6  O    0.000000   0.000000   0.000000   0.000000   0.000000   0.000000
     7  H    0.426132  -0.001900   0.381114  -0.022930   0.000318  -0.027067
     8  H   -0.001900   0.436107  -0.027071   0.375783  -0.000078   0.002470
     9  C    0.381114  -0.027071   4.956466   0.491076  -0.066080   0.538319
    10  C   -0.022930   0.375783   0.491076   5.051393   0.002656  -0.044115
    11  Cl   0.000318  -0.000078  -0.066080   0.002656  16.909324   0.213474
    12  C   -0.027067   0.002470   0.538319  -0.044115   0.213474   5.041566
    13  C    0.001140  -0.025752  -0.034002   0.564732   0.000310  -0.029859
    14  F   -0.000017  -0.000041   0.002711  -0.038431   0.000000  -0.000090
    15  C    0.002344  -0.000056  -0.047842  -0.036139  -0.067077   0.517665
    16  C    0.000135   0.003802  -0.025173  -0.074000   0.002681  -0.043448
    17  H   -0.000109   0.000009   0.002391   0.000073   0.000210  -0.026753
    18  H    0.000000  -0.000001   0.000007  -0.000014   0.000001  -0.000064
    19  C    0.000004  -0.000097  -0.000108   0.003504  -0.000086   0.002887
    20  H    0.000000   0.000002  -0.000044   0.000030  -0.000008   0.000402
    21  N    0.000000   0.000005   0.000024  -0.000234   0.000001  -0.000058
    22  H    0.000000   0.000000  -0.000015  -0.000052   0.000000  -0.000021
              13         14         15         16         17         18
     1  H    0.000000   0.000000   0.000000   0.000000   0.000000  -0.000011
     2  C   -0.000012  -0.000005  -0.000003  -0.000124   0.000000   0.000437
     3  H   -0.000002   0.000000   0.000000  -0.000027   0.000000  -0.000018
     4  H    0.000002   0.000010   0.000000   0.000021   0.000000  -0.000006
     5  C    0.000433   0.001107  -0.000129   0.002112  -0.000001  -0.001350
     6  O    0.000077  -0.000069  -0.000010   0.000380   0.000000   0.009263
     7  H    0.001140  -0.000017   0.002344   0.000135  -0.000109   0.000000
     8  H   -0.025752  -0.000041  -0.000056   0.003802   0.000009  -0.000001
     9  C   -0.034002   0.002711  -0.047842  -0.025173   0.002391   0.000007
    10  C    0.564732  -0.038431  -0.036139  -0.074000   0.000073  -0.000014
    11  Cl   0.000310   0.000000  -0.067077   0.002681   0.000210   0.000001
    12  C   -0.029859  -0.000090   0.517665  -0.043448  -0.026753  -0.000064
    13  C    4.320257   0.274096  -0.029032   0.523600   0.001316  -0.005120
    14  F    0.274096   9.180442   0.002620  -0.051136  -0.000018   0.001688
    15  C   -0.029032   0.002620   4.988973   0.521593   0.380647   0.001678
    16  C    0.523600  -0.051136   0.521593   5.111747  -0.026874  -0.033237
    17  H    0.001316  -0.000018   0.380647  -0.026874   0.430899  -0.000001
    18  H   -0.005120   0.001688   0.001678  -0.033237  -0.000001   0.433276
    19  C   -0.046016   0.004322  -0.038100   0.307508  -0.002448   0.409585
    20  H    0.003822   0.000101  -0.003289  -0.060540   0.002273  -0.026486
    21  N   -0.001843  -0.000708  -0.000462  -0.057395   0.000125  -0.040889
    22  H    0.000868  -0.000107   0.001136   0.000054   0.000042   0.002859
              19         20         21         22
     1  H   -0.000109   0.000009   0.003732  -0.000020
     2  C    0.004630  -0.000032  -0.118457  -0.000598
     3  H   -0.000001  -0.000010   0.005212   0.001057
     4  H   -0.000157  -0.000005   0.000389   0.000123
     5  C   -0.023045  -0.000564   0.258871  -0.015713
     6  O    0.003268   0.000600  -0.104872   0.002393
     7  H    0.000004   0.000000   0.000000   0.000000
     8  H   -0.000097   0.000002   0.000005   0.000000
     9  C   -0.000108  -0.000044   0.000024  -0.000015
    10  C    0.003504   0.000030  -0.000234  -0.000052
    11  Cl  -0.000086  -0.000008   0.000001   0.000000
    12  C    0.002887   0.000402  -0.000058  -0.000021
    13  C   -0.046016   0.003822  -0.001843   0.000868
    14  F    0.004322   0.000101  -0.000708  -0.000107
    15  C   -0.038100  -0.003289  -0.000462   0.001136
    16  C    0.307508  -0.060540  -0.057395   0.000054
    17  H   -0.002448   0.002273   0.000125   0.000042
    18  H    0.409585  -0.026486  -0.040889   0.002859
    19  C    4.898205   0.424903   0.182041  -0.022379
    20  H    0.424903   0.519204  -0.046589   0.000385
    21  N    0.182041  -0.046589   7.401228   0.320117
    22  H   -0.022379   0.000385   0.320117   0.326157
 Mulliken charges:
               1
     1  H    0.213292
     2  C   -0.581619
     3  H    0.167857
     4  H    0.204835
     5  C    0.751494
     6  O   -0.603366
     7  H    0.240836
     8  H    0.236818
     9  C   -0.171773
    10  C   -0.273348
    11  Cl   0.004352
    12  C   -0.145312
    13  C    0.480987
    14  F   -0.376478
    15  C   -0.194518
    16  C   -0.101678
    17  H    0.238218
    18  H    0.248403
    19  C   -0.108311
    20  H    0.185836
    21  N   -0.800238
    22  H    0.383712
 Sum of Mulliken charges =   0.00000
 Mulliken charges with hydrogens summed into heavy atoms:
               1
     2  C    0.004365
     5  C    0.751494
     6  O   -0.603366
     9  C    0.069063
    10  C   -0.036530
    11  Cl   0.004352
    12  C   -0.145312
    13  C    0.480987
    14  F   -0.376478
    15  C    0.043700
    16  C   -0.101678
    19  C    0.325928
    21  N   -0.416527
 DipInt: DoE/N= T F RetVal/Mat= T F Init=T NMatP=  1 IDeriv=0 Min/MaxMlt=  0  4
 Entering OneElI...
 OneElI was handed  2147360376 working-precision words.
 Multipole integrals L=0 to 4 MinM= 0 MaxM= 0.
 Requested accuracy = 0.1000D-12
 ShPair: Thresh= 1.00D-13 NBox=     0 BxSize= 0.00D+00 RnKept= 1.75D+01
         NSMCal=                 2556 NSMKep=                2202
 PrsmSu:  NPrtUS=   1 ThrOK=F IAlg=1 NPAlg=1 LenDen=           0.
 Prism:   IPart=     0 DynPar=F LinDyn=F Incr=          22.
 PRISM was handed  2147152312 working-precision words and  2202 shell-pairs
 IPart=  0 NShTot=        2202 NBatch=          55 AvBLen=        40.0
 PrSmSu:  NxtVal=             23.
 Electronic moments (au):
       -104.00000000          0.63455065         -0.20152514          1.17370787
      -2898.31867912       -541.68014629       -215.56515068          6.19627681
         -8.28926462          0.87628953       1139.84454162       -808.33433941
        -88.68356638       -657.85786955       2748.23408576      -1186.89439702
        785.08199443        124.06343467        -58.88868199       -226.21674167
    -149122.76799918      -6868.90869193      -1679.40432200       4350.68270926
       3481.93528002         54.65079060       -117.96621448       1053.84741651
        104.10027074     -10396.23468424      -8278.13851485       -808.91263422
       1616.43277021       -224.86588993       -851.13581740
 Electronic spatial extent (au):  <R**2>=           3655.5640
 DipInt: DoE/N= F T RetVal/Mat= T F Init=T NMatP=  1 IDeriv=0 Min/MaxMlt=  0  4
 Nuclear    moments (au):
        104.00000000          0.00000000          0.00000000          0.00000000
       2826.71990168        484.24082954        154.32806461          0.00000000
         -0.00015054          0.00004540      -1123.02748049        825.61372701
         88.32410085        662.80851660      -2732.54617235       1260.62439278
       -793.13540005       -123.41148978         63.09696087        236.98663816
     138618.93016512       5201.45912339        933.30581510      -4222.80065546
      -3926.67477343        -56.39272291        147.90705584      -1053.22578470
       -125.62925247       8519.60544859       6400.86938918        399.66916205
      -1615.02803163        242.26094634        833.02914004
 Total      moments (au):
          0.00000000          0.63455065         -0.20152514          1.17370787
        -71.59877744        -57.43931675        -61.23708607          6.19627681
         -8.28941516          0.87633493         16.81706112         17.27938761
         -0.35946553          4.95064704         15.68791341         73.72999577
         -8.05340562          0.65194489          4.20827888         10.76989649
     -10503.83783406      -1667.44956855       -746.09850690        127.88205380
       -444.73949341         -1.74193231         29.94084136          0.62163182
        -21.52898173      -1876.62923565      -1877.26912567       -409.24347218
          1.40473858         17.39505641        -18.10667736
 Traceless Quadrup. (au):
         -8.17371735          5.98574333          2.18797402          6.19627681
         -8.28941516          0.87633493
 Charge=              0.0000 electrons
 Dipole moment (field-independent basis, Debye):
    X=              1.6129    Y=             -0.5122    Z=              2.9833  Tot=              3.4298
 Quadrupole moment (field-independent basis, Debye-Ang):
   XX=            -96.3028   YY=            -77.2578   ZZ=            -82.3660
   XY=              8.3342   XZ=            -11.1495   YZ=              1.1787
 Traceless Quadrupole moment (field-independent basis, Debye-Ang):
   XX=            -10.9939   YY=              8.0510   ZZ=              2.9429
   XY=              8.3342   XZ=            -11.1495   YZ=              1.1787
 Octapole moment (field-independent basis, Debye-Ang**2):
  XXX=             11.9697  YYY=             12.2988  ZZZ=             -0.2559  XYY=              3.5237
  XXY=             11.1661  XXZ=             52.4782  XZZ=             -5.7321  YZZ=              0.4640
  YYZ=              2.9953  XYZ=              7.6656
 Hexadecapole moment (field-independent basis, Debye-Ang**3):
 XXXX=          -3956.2487 YYYY=           -628.0414 ZZZZ=           -281.0165 XXXY=             48.1665
 XXXZ=           -167.5102 YYYX=             -0.6561 YYYZ=             11.2772 ZZZX=              0.2341
 ZZZY=             -8.1088 XXYY=           -706.8285 XXZZ=           -707.0695 YYZZ=           -154.1407
 XXYZ=              0.5291 YYXZ=              6.5518 ZZXY=             -6.8198
 N-N= 8.478208253797D+02 E-N=-4.138183918622D+03  KE= 1.033320227891D+03
 Entering OneElI...
 OneElI was handed  2147383262 working-precision words.
 Calculate electrostatic properties
    NBasis =   217  MinDer = 0  MaxDer = 0
    NGrid  =    22  NMatD  =   1
 Requested accuracy = 0.1000D-12
 PrtBox:  NBox=     1 Levels=  1 BoxLen=   32.45 SMaxX=       17.38
          Shift=            9.869679            3.447949            3.128612
 Box      1 Number                   0 centers from      1 to     71:
 ShPair: Thresh= 1.00D-13 NBox=     1 BxSize= 3.24D+01 RnKept= 1.75D+01
         NSMCal=                 2556 NSMKep=                2006
 PrsmSu:  NPrtUS=   4 ThrOK=T IAlg=1 NPAlg=1 LenDen=           0.
 Prism:   IPart=     0 DynPar=F LinDyn=F Incr=         110.
 PRISM was handed   536747576 working-precision words and  2006 shell-pairs
 PRISM was handed   536747576 working-precision words and  2006 shell-pairs
 PRISM was handed   536747576 working-precision words and  2006 shell-pairs
 PRISM was handed   536747576 working-precision words and  2006 shell-pairs
 IPart=  0 NShTot=       11550 NBatch=         525 AvBLen=        22.0
 IPart=  3 NShTot=       10648 NBatch=         484 AvBLen=        22.0
 IPart=  1 NShTot=       11044 NBatch=         502 AvBLen=        22.0
 IPart=  2 NShTot=       10890 NBatch=         495 AvBLen=        22.0
 PrSmSu:  NxtVal=            441.
 --------------------------------------------------------
       Center         ----      EFG at Nuclei      ----
                      3XX-RR        3YY-RR        3ZZ-RR
 --------------------------------------------------------
     1   Atom       -0.262646      0.131828      0.130818
     2   Atom        0.018614      0.011398     -0.030012
     3   Atom        0.085367     -0.039299     -0.046068
     4   Atom        0.158270     -0.225982      0.067712
     5   Atom        0.137827     -0.488210      0.350383
     6   Atom        1.113694     -0.762105     -0.351589
     7   Atom       -0.198080      0.064998      0.133082
     8   Atom        0.153701     -0.306327      0.152626
     9   Atom        0.157032      0.126746     -0.283777
    10   Atom        0.126967      0.110660     -0.237627
    11   Atom       -1.964631      0.199298      1.765333
    12   Atom       -0.114383      0.147727     -0.033344
    13   Atom       -0.115534      0.193153     -0.077619
    14   Atom       -1.487735      0.196058      1.291677
    15   Atom        0.143935      0.131465     -0.275400
    16   Atom        0.130394      0.110281     -0.240675
    17   Atom        0.150955     -0.300555      0.149600
    18   Atom        0.070616      0.020098     -0.090714
    19   Atom       -0.078460      0.144225     -0.065764
    20   Atom        0.129892     -0.220943      0.091051
    21   Atom       -0.454445      0.903026     -0.448581
    22   Atom        0.105705      0.206239     -0.311944
 --------------------------------------------------------
                        XY            XZ            YZ
 --------------------------------------------------------
     1   Atom       -0.116114     -0.100628     -0.028640
     2   Atom        0.004317      0.045820      0.019532
     3   Atom        0.119431     -0.110849      0.205632
     4   Atom        0.003942      0.008067     -0.181934
     5   Atom       -0.115846     -0.038406     -0.176602
     6   Atom       -0.157525     -1.007570      0.088163
     7   Atom       -0.175207     -0.124597     -0.064882
     8   Atom        0.001885     -0.004995     -0.106730
     9   Atom       -0.033191      0.104096      0.094834
    10   Atom       -0.036092      0.083158      0.077536
    11   Atom        2.527287     -0.287127      0.223382
    12   Atom        0.276973      0.053995      0.112927
    13   Atom        0.349366      0.080533      0.157083
    14   Atom        2.026015     -0.203965      0.218932
    15   Atom       -0.040185      0.094588      0.094907
    16   Atom       -0.042089      0.071004      0.074207
    17   Atom       -0.004141     -0.006575     -0.110176
    18   Atom        0.104256     -0.134411      0.184990
    19   Atom       -0.106946      0.190231     -0.035216
    20   Atom        0.077097      0.038658     -0.158871
    21   Atom        0.249646      0.103186      0.356626
    22   Atom        0.076793     -0.185369      0.182685
 --------------------------------------------------------


 ---------------------------------------------------------------------------------
              Nuclear Quadrupole Coupling Constant in Principal Axis System
 ---------------------------------------------------------------------------------

       Atom             a.u.   MegaHertz   Gauss  10(-4) cm-1        Axes

              Baa    -3.6561   -70.141   -25.028   -23.397  0.8327 -0.5497  0.0668
    11 Cl(35) Bbb     1.7803    34.155    12.187    11.393 -0.2248 -0.2254  0.9480
              Bcc     1.8758    35.986    12.841    12.004  0.5061  0.8044  0.3113
 
              Baa    -0.5627     2.703     0.964     0.902 -0.5388 -0.1114  0.8350
    21 N(14)  Bbb    -0.4764     2.288     0.816     0.763  0.8238 -0.2770  0.4946
              Bcc     1.0392    -4.991    -1.781    -1.665  0.1762  0.9544  0.2410
 

 ---------------------------------------------------------------------------------

 No NMR shielding tensors so no spin-rotation constants.
 Leave Link  601 at Wed Nov 29 20:37:55 2017, MaxMem=  2147483648 cpu:         0.4
 FitSet:  NAtFit=    22 NAtPot=    22 NAtFrz=     0 MDM=    26 TotChg=   0.00000
 Merz-Kollman atomic radii used.
 Atom Element Radius
    1     1    1.20
    2     6    1.50
    3     1    1.20
    4     1    1.20
    5     6    1.50
    6     8    1.40
    7     1    1.20
    8     1    1.20
    9     6    1.50
   10     6    1.50
   11    17    1.70
   12     6    1.50
   13     6    1.50
   14     9    1.35
   15     6    1.50
   16     6    1.50
   17     1    1.20
   18     1    1.20
   19     6    1.50
   20     1    1.20
   21     7    1.50
   22     1    1.20
 Generate VDW surfaces: Layer= 4 Dens= 6 Start= 1.400 Inc= 0.200

 **********************************************************************

            Electrostatic Properties Using The SCF Density

 **********************************************************************

       Atomic Center    1 is at  -5.222809 -0.859869  1.088163
       Atomic Center    2 is at  -4.208617 -0.585841  1.341053
       Atomic Center    3 is at  -3.806708 -1.295862  2.054988
       Atomic Center    4 is at  -4.225680  0.394622  1.806234
       Atomic Center    5 is at  -3.392571 -0.505992  0.068453
       Atomic Center    6 is at  -3.883157 -0.200742 -0.982735
       Atomic Center    7 is at   3.482794  1.622726  0.681184
       Atomic Center    8 is at   1.396370  2.966177  0.503771
       Atomic Center    9 is at   2.563329  1.165842  0.369295
       Atomic Center   10 is at   1.402683  1.917656  0.273401
       Atomic Center   11 is at   3.974532 -1.135879  0.171876
       Atomic Center   12 is at   2.522952 -0.177584  0.056157
       Atomic Center   13 is at   0.239158  1.306004 -0.130009
       Atomic Center   14 is at  -0.864773  2.038105 -0.222964
       Atomic Center   15 is at   1.342421 -0.778228 -0.349568
       Atomic Center   16 is at   0.172519 -0.041255 -0.449589
       Atomic Center   17 is at   1.336064 -1.824576 -0.591818
       Atomic Center   18 is at  -1.603445 -0.087133 -1.655590
       Atomic Center   19 is at  -1.130396 -0.674562 -0.884372
       Atomic Center   20 is at  -0.926188 -1.655995 -1.299909
       Atomic Center   21 is at  -2.069972 -0.769202  0.212935
       Atomic Center   22 is at  -1.728284 -1.058980  1.100164
      ESP Fit Center   23 is at  -5.950270 -0.439869  2.543086
      ESP Fit Center   24 is at  -6.062809 -0.859869  2.543086
      ESP Fit Center   25 is at  -5.950270 -1.279869  2.543086
      ESP Fit Center   26 is at  -5.642809 -1.587330  2.543086
      ESP Fit Center   27 is at  -6.232815 -0.234500  2.276102
      ESP Fit Center   28 is at  -6.390522 -0.641586  2.276102
      ESP Fit Center   29 is at  -6.390522 -1.078152  2.276102
      ESP Fit Center   30 is at  -6.232815 -1.485239  2.276102
      ESP Fit Center   31 is at  -5.938702 -1.807865  2.276102
      ESP Fit Center   32 is at  -5.547904 -2.002460  2.276102
      ESP Fit Center   33 is at  -6.289343  0.129730  1.928163
      ESP Fit Center   34 is at  -6.533649 -0.228602  1.928163
      ESP Fit Center   35 is at  -6.661481 -0.643024  1.928163
      ESP Fit Center   36 is at  -6.661481 -1.076714  1.928163
      ESP Fit Center   37 is at  -6.533649 -1.491136  1.928163
      ESP Fit Center   38 is at  -6.289343 -1.849468  1.928163
      ESP Fit Center   39 is at  -5.950270 -2.119869  1.928163
      ESP Fit Center   40 is at  -5.546560 -2.278314  1.928163
      ESP Fit Center   41 is at  -6.034187  0.545478  1.522979
      ESP Fit Center   42 is at  -6.370270  0.287592  1.522979
      ESP Fit Center   43 is at  -6.628156 -0.048491  1.522979
      ESP Fit Center   44 is at  -6.790270 -0.439869  1.522979
      ESP Fit Center   45 is at  -6.845564 -0.859869  1.522979
      ESP Fit Center   46 is at  -6.790270 -1.279869  1.522979
      ESP Fit Center   47 is at  -6.628156 -1.671247  1.522979
      ESP Fit Center   48 is at  -6.370270 -2.007330  1.522979
      ESP Fit Center   49 is at  -6.034187 -2.265217  1.522979
      ESP Fit Center   50 is at  -5.642809 -2.427330  1.522979
      ESP Fit Center   51 is at  -5.222809 -2.482625  1.522979
      ESP Fit Center   52 is at  -5.938118  0.660240  1.088163
      ESP Fit Center   53 is at  -6.293681  0.434593  1.088163
      ESP Fit Center   54 is at  -6.581958  0.127610  1.088163
      ESP Fit Center   55 is at  -6.784834 -0.241420  1.088163
      ESP Fit Center   56 is at  -6.889562 -0.649309  1.088163
      ESP Fit Center   57 is at  -6.889562 -1.070429  1.088163
      ESP Fit Center   58 is at  -6.784834 -1.478318  1.088163
      ESP Fit Center   59 is at  -6.581958 -1.847348  1.088163
      ESP Fit Center   60 is at  -6.293681 -2.154331  1.088163
      ESP Fit Center   61 is at  -5.938118 -2.379979  1.088163
      ESP Fit Center   62 is at  -5.537610 -2.510112  1.088163
      ESP Fit Center   63 is at  -5.117321 -2.536554  1.088163
      ESP Fit Center   64 is at  -6.034187  0.545478  0.653347
      ESP Fit Center   65 is at  -6.370270  0.287592  0.653347
      ESP Fit Center   66 is at  -6.628156 -0.048491  0.653347
      ESP Fit Center   67 is at  -6.790270 -0.439869  0.653347
      ESP Fit Center   68 is at  -6.845564 -0.859869  0.653347
      ESP Fit Center   69 is at  -6.790270 -1.279869  0.653347
      ESP Fit Center   70 is at  -6.628156 -1.671247  0.653347
      ESP Fit Center   71 is at  -6.370270 -2.007330  0.653347
      ESP Fit Center   72 is at  -6.034187 -2.265217  0.653347
      ESP Fit Center   73 is at  -5.642809 -2.427330  0.653347
      ESP Fit Center   74 is at  -5.222809 -2.482625  0.653347
      ESP Fit Center   75 is at  -5.950270  0.400131  0.248163
      ESP Fit Center   76 is at  -6.289343  0.129730  0.248163
      ESP Fit Center   77 is at  -6.533649 -0.228602  0.248163
      ESP Fit Center   78 is at  -6.661481 -0.643024  0.248163
      ESP Fit Center   79 is at  -6.661481 -1.076714  0.248163
      ESP Fit Center   80 is at  -6.533649 -1.491136  0.248163
      ESP Fit Center   81 is at  -6.289343 -1.849468  0.248163
      ESP Fit Center   82 is at  -5.950270 -2.119869  0.248163
      ESP Fit Center   83 is at  -5.546560 -2.278314  0.248163
      ESP Fit Center   84 is at  -5.114083 -2.310724  0.248163
      ESP Fit Center   85 is at  -5.938702  0.088127 -0.099776
      ESP Fit Center   86 is at  -6.232815 -0.234500 -0.099776
      ESP Fit Center   87 is at  -6.390522 -0.641586 -0.099776
      ESP Fit Center   88 is at  -6.390522 -1.078152 -0.099776
      ESP Fit Center   89 is at  -6.232815 -1.485239 -0.099776
      ESP Fit Center   90 is at  -5.938702 -1.807865 -0.099776
      ESP Fit Center   91 is at  -5.547904 -2.002460 -0.099776
      ESP Fit Center   92 is at  -5.113200 -2.042741 -0.099776
      ESP Fit Center   93 is at  -5.950270 -0.439869 -0.366760
      ESP Fit Center   94 is at  -6.062809 -0.859869 -0.366760
      ESP Fit Center   95 is at  -5.950270 -1.279869 -0.366760
      ESP Fit Center   96 is at  -5.642809 -1.587330 -0.366760
      ESP Fit Center   97 is at  -5.222809 -1.699869 -0.366760
      ESP Fit Center   98 is at  -4.003772 -0.231039  3.400702
      ESP Fit Center   99 is at  -4.413462 -0.231039  3.400702
      ESP Fit Center  100 is at  -4.618307 -0.585841  3.400702
      ESP Fit Center  101 is at  -3.512649 -0.184024  3.281200
      ESP Fit Center  102 is at  -4.904586 -0.184024  3.281200
      ESP Fit Center  103 is at  -5.012252 -0.585841  3.281200
      ESP Fit Center  104 is at  -5.355449 -0.371461  3.087139
      ESP Fit Center  105 is at  -5.355449 -0.800221  3.087139
      ESP Fit Center  106 is at  -5.200563 -1.200028  3.087139
      ESP Fit Center  107 is at  -2.783843 -0.167490  2.825977
      ESP Fit Center  108 is at  -5.633391 -0.167490  2.825977
      ESP Fit Center  109 is at  -5.693541 -0.585841  2.825977
      ESP Fit Center  110 is at  -5.633391 -1.004193  2.825977
      ESP Fit Center  111 is at  -5.457815 -1.388652  2.825977
      ESP Fit Center  112 is at  -2.513269 -0.167975  2.507751
      ESP Fit Center  113 is at  -2.662535  0.225606  2.507751
      ESP Fit Center  114 is at  -5.754700  0.225606  2.507751
      ESP Fit Center  115 is at  -5.903965 -0.167975  2.507751
      ESP Fit Center  116 is at  -5.515581 -1.743710  2.507751
      ESP Fit Center  117 is at  -2.447787  0.228805  2.144688
      ESP Fit Center  118 is at  -5.297402 -2.191679  2.144688
      ESP Fit Center  119 is at  -2.518132  0.590771  1.750743
      ESP Fit Center  120 is at  -5.115674 -2.435003  1.750743
      ESP Fit Center  121 is at  -5.012252 -2.525988  1.341053
      ESP Fit Center  122 is at  -4.618307 -2.645490  1.341053
      ESP Fit Center  123 is at  -5.771393  0.755758  0.931363
      ESP Fit Center  124 is at  -4.724873 -2.579740  0.931363
      ESP Fit Center  125 is at  -4.312937 -2.642847  0.931363
      ESP Fit Center  126 is at  -3.896729 -2.621739  0.931363
      ESP Fit Center  127 is at  -3.493290 -2.517281  0.931363
      ESP Fit Center  128 is at  -5.297402  1.019997  0.537418
      ESP Fit Center  129 is at  -5.617155  0.748397  0.537418
      ESP Fit Center  130 is at  -4.522498 -2.500430  0.537418
      ESP Fit Center  131 is at  -4.103580 -2.523143  0.537418
      ESP Fit Center  132 is at  -5.200507  0.851160  0.174356
      ESP Fit Center  133 is at  -5.515581  0.572028  0.174356
      ESP Fit Center  134 is at  -4.827788 -2.218460  0.174356
      ESP Fit Center  135 is at  -3.806708 -1.295862  3.734988
      ESP Fit Center  136 is at  -3.371892 -1.295862  3.677743
      ESP Fit Center  137 is at  -3.589300 -0.919300  3.677743
      ESP Fit Center  138 is at  -4.024116 -0.919300  3.677743
      ESP Fit Center  139 is at  -4.241524 -1.295862  3.677743
      ESP Fit Center  140 is at  -4.024116 -1.672424  3.677743
      ESP Fit Center  141 is at  -3.589300 -1.672424  3.677743
      ESP Fit Center  142 is at  -2.966708 -1.295862  3.509911
      ESP Fit Center  143 is at  -3.079247 -0.875862  3.509911
      ESP Fit Center  144 is at  -3.386708 -0.568401  3.509911
      ESP Fit Center  145 is at  -3.806708 -0.455862  3.509911
      ESP Fit Center  146 is at  -4.226708 -0.568401  3.509911
      ESP Fit Center  147 is at  -4.534169 -0.875862  3.509911
      ESP Fit Center  148 is at  -4.646708 -1.295862  3.509911
      ESP Fit Center  149 is at  -4.534169 -1.715862  3.509911
      ESP Fit Center  150 is at  -4.226708 -2.023323  3.509911
      ESP Fit Center  151 is at  -3.806708 -2.135862  3.509911
      ESP Fit Center  152 is at  -3.386708 -2.023323  3.509911
      ESP Fit Center  153 is at  -3.079247 -1.715862  3.509911
      ESP Fit Center  154 is at  -2.618769 -1.295862  3.242927
      ESP Fit Center  155 is at  -2.698988 -0.866729  3.242927
      ESP Fit Center  156 is at  -2.928810 -0.495553  3.242927
      ESP Fit Center  157 is at  -3.277198 -0.232462  3.242927
      ESP Fit Center  158 is at  -4.974421 -1.077579  3.242927
      ESP Fit Center  159 is at  -4.974421 -1.514145  3.242927
      ESP Fit Center  160 is at  -4.816714 -1.921232  3.242927
      ESP Fit Center  161 is at  -4.522601 -2.243858  3.242927
      ESP Fit Center  162 is at  -4.131803 -2.438453  3.242927
      ESP Fit Center  163 is at  -3.697099 -2.478734  3.242927
      ESP Fit Center  164 is at  -3.277198 -2.359262  3.242927
      ESP Fit Center  165 is at  -2.928810 -2.096172  3.242927
      ESP Fit Center  166 is at  -2.698988 -1.724995  3.242927
      ESP Fit Center  167 is at  -2.351785 -1.295862  2.894988
      ESP Fit Center  168 is at  -2.416424 -0.867016  2.894988
      ESP Fit Center  169 is at  -2.604595 -0.476275  2.894988
      ESP Fit Center  170 is at  -5.117548 -1.927129  2.894988
      ESP Fit Center  171 is at  -4.873242 -2.285461  2.894988
      ESP Fit Center  172 is at  -4.534169 -2.555862  2.894988
      ESP Fit Center  173 is at  -4.130459 -2.714307  2.894988
      ESP Fit Center  174 is at  -3.697982 -2.746717  2.894988
      ESP Fit Center  175 is at  -3.275165 -2.650211  2.894988
      ESP Fit Center  176 is at  -2.899579 -2.433366  2.894988
      ESP Fit Center  177 is at  -2.604595 -2.115449  2.894988
      ESP Fit Center  178 is at  -2.416424 -1.724708  2.894988
      ESP Fit Center  179 is at  -5.212055 -2.107240  2.489804
      ESP Fit Center  180 is at  -4.954169 -2.443323  2.489804
      ESP Fit Center  181 is at  -4.618086 -2.701209  2.489804
      ESP Fit Center  182 is at  -4.226708 -2.863323  2.489804
      ESP Fit Center  183 is at  -3.806708 -2.918617  2.489804
      ESP Fit Center  184 is at  -3.386708 -2.863323  2.489804
      ESP Fit Center  185 is at  -2.995330 -2.701209  2.489804
      ESP Fit Center  186 is at  -2.659247 -2.443323  2.489804
      ESP Fit Center  187 is at  -2.401361 -2.107240  2.489804
      ESP Fit Center  188 is at  -4.877580 -2.590324  2.054988
      ESP Fit Center  189 is at  -4.522017 -2.815972  2.054988
      ESP Fit Center  190 is at  -4.121509 -2.946105  2.054988
      ESP Fit Center  191 is at  -3.701220 -2.972547  2.054988
      ESP Fit Center  192 is at  -3.287560 -2.893637  2.054988
      ESP Fit Center  193 is at  -2.906519 -2.714333  2.054988
      ESP Fit Center  194 is at  -2.582041 -2.445901  2.054988
      ESP Fit Center  195 is at  -4.618086 -2.701209  1.620172
      ESP Fit Center  196 is at  -4.226708 -2.863323  1.620172
      ESP Fit Center  197 is at  -3.806708 -2.918617  1.620172
      ESP Fit Center  198 is at  -3.386708 -2.863323  1.620172
      ESP Fit Center  199 is at  -2.995330 -2.701209  1.620172
      ESP Fit Center  200 is at  -2.659247 -2.443323  1.620172
      ESP Fit Center  201 is at  -4.130459 -2.714307  1.214988
      ESP Fit Center  202 is at  -3.697982 -2.746717  1.214988
      ESP Fit Center  203 is at  -3.275165 -2.650211  1.214988
      ESP Fit Center  204 is at  -2.899579 -2.433366  1.214988
      ESP Fit Center  205 is at  -4.225680  0.394622  3.486234
      ESP Fit Center  206 is at  -3.790864  0.394622  3.428989
      ESP Fit Center  207 is at  -4.008272  0.771184  3.428989
      ESP Fit Center  208 is at  -4.443088  0.771184  3.428989
      ESP Fit Center  209 is at  -4.660496  0.394622  3.428989
      ESP Fit Center  210 is at  -4.443088  0.018060  3.428989
      ESP Fit Center  211 is at  -4.008272  0.018060  3.428989
      ESP Fit Center  212 is at  -3.385680  0.394622  3.261157
      ESP Fit Center  213 is at  -3.498219  0.814622  3.261157
      ESP Fit Center  214 is at  -3.805680  1.122083  3.261157
      ESP Fit Center  215 is at  -4.225680  1.234622  3.261157
      ESP Fit Center  216 is at  -4.645680  1.122083  3.261157
      ESP Fit Center  217 is at  -4.953141  0.814622  3.261157
      ESP Fit Center  218 is at  -5.065680  0.394622  3.261157
      ESP Fit Center  219 is at  -4.953141 -0.025378  3.261157
      ESP Fit Center  220 is at  -3.498219 -0.025378  3.261157
      ESP Fit Center  221 is at  -3.037741  0.394622  2.994173
      ESP Fit Center  222 is at  -3.117960  0.823755  2.994173
      ESP Fit Center  223 is at  -3.347782  1.194931  2.994173
      ESP Fit Center  224 is at  -3.696170  1.458022  2.994173
      ESP Fit Center  225 is at  -4.116071  1.577494  2.994173
      ESP Fit Center  226 is at  -4.550775  1.537212  2.994173
      ESP Fit Center  227 is at  -4.941574  1.342618  2.994173
      ESP Fit Center  228 is at  -5.235687  1.019991  2.994173
      ESP Fit Center  229 is at  -5.393393  0.612905  2.994173
      ESP Fit Center  230 is at  -5.393393  0.176339  2.994173
      ESP Fit Center  231 is at  -2.770757  0.394622  2.646234
      ESP Fit Center  232 is at  -2.835396  0.823468  2.646234
      ESP Fit Center  233 is at  -3.023567  1.214209  2.646234
      ESP Fit Center  234 is at  -3.318551  1.532126  2.646234
      ESP Fit Center  235 is at  -3.694137  1.748971  2.646234
      ESP Fit Center  236 is at  -4.116954  1.845476  2.646234
      ESP Fit Center  237 is at  -4.549431  1.813067  2.646234
      ESP Fit Center  238 is at  -4.953141  1.654622  2.646234
      ESP Fit Center  239 is at  -5.292214  1.384221  2.646234
      ESP Fit Center  240 is at  -5.536520  1.025889  2.646234
      ESP Fit Center  241 is at  -5.664352  0.611467  2.646234
      ESP Fit Center  242 is at  -2.658219  0.814622  2.241050
      ESP Fit Center  243 is at  -2.820333  1.206000  2.241050
      ESP Fit Center  244 is at  -3.078219  1.542083  2.241050
      ESP Fit Center  245 is at  -3.414302  1.799969  2.241050
      ESP Fit Center  246 is at  -3.805680  1.962083  2.241050
      ESP Fit Center  247 is at  -4.225680  2.017377  2.241050
      ESP Fit Center  248 is at  -4.645680  1.962083  2.241050
      ESP Fit Center  249 is at  -5.037058  1.799969  2.241050
      ESP Fit Center  250 is at  -5.373141  1.542083  2.241050
      ESP Fit Center  251 is at  -5.631027  1.206000  2.241050
      ESP Fit Center  252 is at  -5.793141  0.814622  2.241050
      ESP Fit Center  253 is at  -5.848435  0.394622  2.241050
      ESP Fit Center  254 is at  -2.598460  0.812421  1.806234
      ESP Fit Center  255 is at  -2.753485  1.203968  1.806234
      ESP Fit Center  256 is at  -3.001013  1.544661  1.806234
      ESP Fit Center  257 is at  -3.325491  1.813093  1.806234
      ESP Fit Center  258 is at  -3.706532  1.992397  1.806234
      ESP Fit Center  259 is at  -4.120192  2.071307  1.806234
      ESP Fit Center  260 is at  -4.540481  2.044864  1.806234
      ESP Fit Center  261 is at  -4.940989  1.914731  1.806234
      ESP Fit Center  262 is at  -5.296552  1.689084  1.806234
      ESP Fit Center  263 is at  -5.584829  1.382101  1.806234
      ESP Fit Center  264 is at  -5.787705  1.013071  1.806234
      ESP Fit Center  265 is at  -5.892433  0.605182  1.806234
      ESP Fit Center  266 is at  -2.820333  1.206000  1.371418
      ESP Fit Center  267 is at  -3.078219  1.542083  1.371418
      ESP Fit Center  268 is at  -3.414302  1.799969  1.371418
      ESP Fit Center  269 is at  -3.805680  1.962083  1.371418
      ESP Fit Center  270 is at  -4.225680  2.017377  1.371418
      ESP Fit Center  271 is at  -4.645680  1.962083  1.371418
      ESP Fit Center  272 is at  -5.037058  1.799969  1.371418
      ESP Fit Center  273 is at  -5.373141  1.542083  1.371418
      ESP Fit Center  274 is at  -5.631027  1.206000  1.371418
      ESP Fit Center  275 is at  -5.793141  0.814622  1.371418
      ESP Fit Center  276 is at  -3.318551  1.532126  0.966234
      ESP Fit Center  277 is at  -3.694137  1.748971  0.966234
      ESP Fit Center  278 is at  -4.116954  1.845476  0.966234
      ESP Fit Center  279 is at  -4.549431  1.813067  0.966234
      ESP Fit Center  280 is at  -4.953141  1.654622  0.966234
      ESP Fit Center  281 is at  -5.292214  1.384221  0.966234
      ESP Fit Center  282 is at  -5.536520  1.025889  0.966234
      ESP Fit Center  283 is at  -4.116071  1.577494  0.618295
      ESP Fit Center  284 is at  -4.550775  1.537212  0.618295
      ESP Fit Center  285 is at  -4.941574  1.342618  0.618295
      ESP Fit Center  286 is at  -2.773400  1.126627  1.235151
      ESP Fit Center  287 is at  -2.483790  1.208151  0.872088
      ESP Fit Center  288 is at  -2.873527  1.363437  0.872088
      ESP Fit Center  289 is at  -3.287534  1.431310  0.872088
      ESP Fit Center  290 is at  -3.287534 -2.443294  0.872088
      ESP Fit Center  291 is at  -2.677244  1.425448  0.478143
      ESP Fit Center  292 is at  -3.080683  1.529906  0.478143
      ESP Fit Center  293 is at  -3.496891  1.551013  0.478143
      ESP Fit Center  294 is at  -3.908827  1.487907  0.478143
      ESP Fit Center  295 is at  -3.908827 -2.499891  0.478143
      ESP Fit Center  296 is at  -3.496891 -2.562998  0.478143
      ESP Fit Center  297 is at  -2.982881  1.553657  0.068453
      ESP Fit Center  298 is at  -3.392571  1.594008  0.068453
      ESP Fit Center  299 is at  -3.802261  1.553657  0.068453
      ESP Fit Center  300 is at  -4.196206  1.434155  0.068453
      ESP Fit Center  301 is at  -4.559269 -2.252078  0.068453
      ESP Fit Center  302 is at  -4.196206 -2.446139  0.068453
      ESP Fit Center  303 is at  -3.802261 -2.565641  0.068453
      ESP Fit Center  304 is at  -3.392571 -2.605992  0.068453
      ESP Fit Center  305 is at  -2.677244  1.425448 -0.341237
      ESP Fit Center  306 is at  -3.080683  1.529906 -0.341237
      ESP Fit Center  307 is at  -4.955347 -1.847591 -0.341237
      ESP Fit Center  308 is at  -4.653295 -2.134713 -0.341237
      ESP Fit Center  309 is at  -4.299628 -2.355154 -0.341237
      ESP Fit Center  310 is at  -3.908827 -2.499891 -0.341237
      ESP Fit Center  311 is at  -3.496891 -2.562998 -0.341237
      ESP Fit Center  312 is at  -3.080683 -2.541890 -0.341237
      ESP Fit Center  313 is at  -2.483790  1.208151 -0.735182
      ESP Fit Center  314 is at  -4.481356 -2.111830 -0.735182
      ESP Fit Center  315 is at  -4.110694 -2.308344 -0.735182
      ESP Fit Center  316 is at  -3.706452 -2.420581 -0.735182
      ESP Fit Center  317 is at  -3.287534 -2.443294 -0.735182
      ESP Fit Center  318 is at  -3.603039 -2.239347 -1.098244
      ESP Fit Center  319 is at  -3.182104 -2.239347 -1.098244
      ESP Fit Center  320 is at  -4.201220  1.466602 -0.002735
      ESP Fit Center  321 is at  -4.605879  1.335120 -0.002735
      ESP Fit Center  322 is at  -4.965127  1.107135 -0.002735
      ESP Fit Center  323 is at  -5.256390  0.796970 -0.002735
      ESP Fit Center  324 is at  -3.468362  1.616593 -0.377062
      ESP Fit Center  325 is at  -3.883157  1.663329 -0.377062
      ESP Fit Center  326 is at  -4.297952  1.616593 -0.377062
      ESP Fit Center  327 is at  -4.691947  1.478728 -0.377062
      ESP Fit Center  328 is at  -5.045386  1.256647 -0.377062
      ESP Fit Center  329 is at  -5.340546  0.961487 -0.377062
      ESP Fit Center  330 is at  -5.562627  0.608048 -0.377062
      ESP Fit Center  331 is at  -5.700492  0.214053 -0.377062
      ESP Fit Center  332 is at  -5.747228 -0.200742 -0.377062
      ESP Fit Center  333 is at  -2.621231  1.284912 -0.777859
      ESP Fit Center  334 is at  -2.970106  1.521455 -0.777859
      ESP Fit Center  335 is at  -3.361674  1.677470 -0.777859
      ESP Fit Center  336 is at  -3.777626  1.745662 -0.777859
      ESP Fit Center  337 is at  -4.198513  1.722842 -0.777859
      ESP Fit Center  338 is at  -4.604654  1.610078 -0.777859
      ESP Fit Center  339 is at  -4.977058  1.412641 -0.777859
      ESP Fit Center  340 is at  -5.298313  1.139765 -0.777859
      ESP Fit Center  341 is at  -5.553397  0.804208 -0.777859
      ESP Fit Center  342 is at  -5.730382  0.421661 -0.777859
      ESP Fit Center  343 is at  -5.820993  0.010010 -0.777859
      ESP Fit Center  344 is at  -5.820993 -0.411494 -0.777859
      ESP Fit Center  345 is at  -5.730382 -0.823145 -0.777859
      ESP Fit Center  346 is at  -5.553397 -1.205692 -0.777859
      ESP Fit Center  347 is at  -5.298313 -1.541249 -0.777859
      ESP Fit Center  348 is at  -4.977058 -1.814126 -0.777859
      ESP Fit Center  349 is at  -4.604654 -2.011562 -0.777859
      ESP Fit Center  350 is at  -2.621231  1.284912 -1.187611
      ESP Fit Center  351 is at  -2.970106  1.521455 -1.187611
      ESP Fit Center  352 is at  -3.361674  1.677470 -1.187611
      ESP Fit Center  353 is at  -3.777626  1.745662 -1.187611
      ESP Fit Center  354 is at  -4.198513  1.722842 -1.187611
      ESP Fit Center  355 is at  -4.604654  1.610078 -1.187611
      ESP Fit Center  356 is at  -4.977058  1.412641 -1.187611
      ESP Fit Center  357 is at  -5.298313  1.139765 -1.187611
      ESP Fit Center  358 is at  -5.553397  0.804208 -1.187611
      ESP Fit Center  359 is at  -5.730382  0.421661 -1.187611
      ESP Fit Center  360 is at  -5.820993  0.010010 -1.187611
      ESP Fit Center  361 is at  -5.820993 -0.411494 -1.187611
      ESP Fit Center  362 is at  -5.730382 -0.823145 -1.187611
      ESP Fit Center  363 is at  -5.553397 -1.205692 -1.187611
      ESP Fit Center  364 is at  -5.298313 -1.541249 -1.187611
      ESP Fit Center  365 is at  -4.977058 -1.814126 -1.187611
      ESP Fit Center  366 is at  -4.604654 -2.011562 -1.187611
      ESP Fit Center  367 is at  -4.198513 -2.124326 -1.187611
      ESP Fit Center  368 is at  -3.777626 -2.147146 -1.187611
      ESP Fit Center  369 is at  -2.720928  1.256647 -1.588408
      ESP Fit Center  370 is at  -3.074367  1.478728 -1.588408
      ESP Fit Center  371 is at  -3.468362  1.616593 -1.588408
      ESP Fit Center  372 is at  -3.883157  1.663329 -1.588408
      ESP Fit Center  373 is at  -4.297952  1.616593 -1.588408
      ESP Fit Center  374 is at  -4.691947  1.478728 -1.588408
      ESP Fit Center  375 is at  -5.045386  1.256647 -1.588408
      ESP Fit Center  376 is at  -5.340546  0.961487 -1.588408
      ESP Fit Center  377 is at  -5.562627  0.608048 -1.588408
      ESP Fit Center  378 is at  -5.700492  0.214053 -1.588408
      ESP Fit Center  379 is at  -5.747228 -0.200742 -1.588408
      ESP Fit Center  380 is at  -5.700492 -0.615537 -1.588408
      ESP Fit Center  381 is at  -5.562627 -1.009532 -1.588408
      ESP Fit Center  382 is at  -5.340546 -1.362971 -1.588408
      ESP Fit Center  383 is at  -5.045386 -1.658131 -1.588408
      ESP Fit Center  384 is at  -4.691947 -1.880212 -1.588408
      ESP Fit Center  385 is at  -4.297952 -2.018077 -1.588408
      ESP Fit Center  386 is at  -3.883157 -2.064813 -1.588408
      ESP Fit Center  387 is at  -3.468362 -2.018077 -1.588408
      ESP Fit Center  388 is at  -3.074367 -1.880212 -1.588408
      ESP Fit Center  389 is at  -2.973639  1.232428 -1.962735
      ESP Fit Center  390 is at  -3.358629  1.413591 -1.962735
      ESP Fit Center  391 is at  -3.776576  1.493318 -1.962735
      ESP Fit Center  392 is at  -4.201220  1.466602 -1.962735
      ESP Fit Center  393 is at  -4.605879  1.335120 -1.962735
      ESP Fit Center  394 is at  -4.965127  1.107135 -1.962735
      ESP Fit Center  395 is at  -5.256390  0.796970 -1.962735
      ESP Fit Center  396 is at  -5.461369  0.424116 -1.962735
      ESP Fit Center  397 is at  -5.567182  0.012000 -1.962735
      ESP Fit Center  398 is at  -5.567182 -0.413484 -1.962735
      ESP Fit Center  399 is at  -5.461369 -0.825600 -1.962735
      ESP Fit Center  400 is at  -5.256390 -1.198455 -1.962735
      ESP Fit Center  401 is at  -4.965127 -1.508619 -1.962735
      ESP Fit Center  402 is at  -4.605879 -1.736604 -1.962735
      ESP Fit Center  403 is at  -4.201220 -1.868086 -1.962735
      ESP Fit Center  404 is at  -3.776576 -1.894802 -1.962735
      ESP Fit Center  405 is at  -3.358629 -1.815075 -1.962735
      ESP Fit Center  406 is at  -2.973639 -1.633913 -1.962735
      ESP Fit Center  407 is at  -2.929311  0.900055 -2.294231
      ESP Fit Center  408 is at  -3.278079  1.124195 -2.294231
      ESP Fit Center  409 is at  -3.675866  1.240996 -2.294231
      ESP Fit Center  410 is at  -4.090448  1.240996 -2.294231
      ESP Fit Center  411 is at  -4.488236  1.124195 -2.294231
      ESP Fit Center  412 is at  -4.837004  0.900055 -2.294231
      ESP Fit Center  413 is at  -5.108497  0.586736 -2.294231
      ESP Fit Center  414 is at  -5.280720  0.209619 -2.294231
      ESP Fit Center  415 is at  -5.339721 -0.200742 -2.294231
      ESP Fit Center  416 is at  -5.280720 -0.611104 -2.294231
      ESP Fit Center  417 is at  -5.108497 -0.988220 -2.294231
      ESP Fit Center  418 is at  -4.837004 -1.301540 -2.294231
      ESP Fit Center  419 is at  -4.488236 -1.525679 -2.294231
      ESP Fit Center  420 is at  -4.090448 -1.642480 -2.294231
      ESP Fit Center  421 is at  -3.675866 -1.642480 -2.294231
      ESP Fit Center  422 is at  -3.278079 -1.525679 -2.294231
      ESP Fit Center  423 is at  -2.929311 -1.301540 -2.294231
      ESP Fit Center  424 is at  -3.031775  0.575395 -2.568408
      ESP Fit Center  425 is at  -3.369640  0.830539 -2.568408
      ESP Fit Center  426 is at  -3.776858  0.946403 -2.568408
      ESP Fit Center  427 is at  -4.198433  0.907338 -2.568408
      ESP Fit Center  428 is at  -4.577428  0.718621 -2.568408
      ESP Fit Center  429 is at  -4.862657  0.405739 -2.568408
      ESP Fit Center  430 is at  -5.015600  0.010948 -2.568408
      ESP Fit Center  431 is at  -5.015600 -0.412432 -2.568408
      ESP Fit Center  432 is at  -4.862657 -0.807223 -2.568408
      ESP Fit Center  433 is at  -4.577428 -1.120105 -2.568408
      ESP Fit Center  434 is at  -4.198433 -1.308822 -2.568408
      ESP Fit Center  435 is at  -3.776858 -1.347887 -2.568408
      ESP Fit Center  436 is at  -3.369640 -1.232023 -2.568408
      ESP Fit Center  437 is at  -3.031775 -0.976879 -2.568408
      ESP Fit Center  438 is at  -3.085953 -0.200742 -2.773284
      ESP Fit Center  439 is at  -3.192758  0.197860 -2.773284
      ESP Fit Center  440 is at  -3.484555  0.489657 -2.773284
      ESP Fit Center  441 is at  -3.883157  0.596462 -2.773284
      ESP Fit Center  442 is at  -4.281759  0.489657 -2.773284
      ESP Fit Center  443 is at  -4.573556  0.197860 -2.773284
      ESP Fit Center  444 is at  -4.680361 -0.200742 -2.773284
      ESP Fit Center  445 is at  -4.573556 -0.599344 -2.773284
      ESP Fit Center  446 is at  -4.281759 -0.891141 -2.773284
      ESP Fit Center  447 is at  -3.883157 -0.997946 -2.773284
      ESP Fit Center  448 is at  -3.484555 -0.891141 -2.773284
      ESP Fit Center  449 is at  -3.192758 -0.599344 -2.773284
      ESP Fit Center  450 is at  -3.475650 -0.200742 -2.899904
      ESP Fit Center  451 is at  -3.679404  0.152169 -2.899904
      ESP Fit Center  452 is at  -4.086911  0.152169 -2.899904
      ESP Fit Center  453 is at  -4.290664 -0.200742 -2.899904
      ESP Fit Center  454 is at  -4.086911 -0.553653 -2.899904
      ESP Fit Center  455 is at  -3.679404 -0.553653 -2.899904
      ESP Fit Center  456 is at  -3.883157 -0.200742 -2.942735
      ESP Fit Center  457 is at   3.482794  1.622726  2.361184
      ESP Fit Center  458 is at   3.917610  1.622726  2.303939
      ESP Fit Center  459 is at   3.700202  1.999288  2.303939
      ESP Fit Center  460 is at   3.265386  1.999288  2.303939
      ESP Fit Center  461 is at   3.700202  1.246164  2.303939
      ESP Fit Center  462 is at   4.322794  1.622726  2.136107
      ESP Fit Center  463 is at   4.210255  2.042726  2.136107
      ESP Fit Center  464 is at   3.902794  2.350187  2.136107
      ESP Fit Center  465 is at   3.482794  2.462726  2.136107
      ESP Fit Center  466 is at   3.062794  2.350187  2.136107
      ESP Fit Center  467 is at   3.902794  0.895265  2.136107
      ESP Fit Center  468 is at   4.210255  1.202726  2.136107
      ESP Fit Center  469 is at   4.670733  1.622726  1.869123
      ESP Fit Center  470 is at   4.590514  2.051859  1.869123
      ESP Fit Center  471 is at   4.360692  2.423036  1.869123
      ESP Fit Center  472 is at   4.012304  2.686126  1.869123
      ESP Fit Center  473 is at   3.592403  2.805598  1.869123
      ESP Fit Center  474 is at   3.157699  2.765317  1.869123
      ESP Fit Center  475 is at   4.012304  0.559326  1.869123
      ESP Fit Center  476 is at   4.360692  0.822416  1.869123
      ESP Fit Center  477 is at   4.590514  1.193593  1.869123
      ESP Fit Center  478 is at   4.937717  1.622726  1.521184
      ESP Fit Center  479 is at   4.873078  2.051572  1.521184
      ESP Fit Center  480 is at   4.684907  2.442313  1.521184
      ESP Fit Center  481 is at   4.389923  2.760230  1.521184
      ESP Fit Center  482 is at   4.014337  2.977075  1.521184
      ESP Fit Center  483 is at   3.591520  3.073580  1.521184
      ESP Fit Center  484 is at   3.159043  3.041171  1.521184
      ESP Fit Center  485 is at   4.684907  0.803139  1.521184
      ESP Fit Center  486 is at   4.873078  1.193880  1.521184
      ESP Fit Center  487 is at   5.105549  1.622726  1.116000
      ESP Fit Center  488 is at   5.050255  2.042726  1.116000
      ESP Fit Center  489 is at   4.888141  2.434104  1.116000
      ESP Fit Center  490 is at   4.630255  2.770187  1.116000
      ESP Fit Center  491 is at   4.294172  3.028073  1.116000
      ESP Fit Center  492 is at   3.902794  3.190187  1.116000
      ESP Fit Center  493 is at   3.482794  3.245481  1.116000
      ESP Fit Center  494 is at   3.062794  3.190187  1.116000
      ESP Fit Center  495 is at   5.050255  1.202726  1.116000
      ESP Fit Center  496 is at   5.162794  1.622726  0.681184
      ESP Fit Center  497 is at   5.110014  2.040525  0.681184
      ESP Fit Center  498 is at   4.954989  2.432072  0.681184
      ESP Fit Center  499 is at   4.707461  2.772765  0.681184
      ESP Fit Center  500 is at   4.382983  3.041197  0.681184
      ESP Fit Center  501 is at   4.001942  3.220501  0.681184
      ESP Fit Center  502 is at   3.588282  3.299411  0.681184
[...]
   D33       -3.13711   0.00000   0.00000  -0.00002  -0.00002  -3.13713
   D34        0.00829   0.00000   0.00000  -0.00004  -0.00004   0.00825
   D35        0.85464   0.00000   0.00000  -0.00004  -0.00004   0.85460
   D36        2.91739   0.00000   0.00000  -0.00002  -0.00002   2.91736
   D37       -1.22565   0.00000   0.00000  -0.00003  -0.00003  -1.22568
   D38       -2.29089   0.00000   0.00000  -0.00002  -0.00002  -2.29091
   D39       -0.22815   0.00000   0.00000   0.00000   0.00000  -0.22815
   D40        1.91200   0.00000   0.00000  -0.00001  -0.00001   1.91200
   D41        2.42571   0.00000   0.00000   0.00000   0.00000   2.42571
   D42       -0.74033   0.00000   0.00000   0.00003   0.00003  -0.74031
   D43        0.30673   0.00000   0.00000   0.00000   0.00000   0.30673
   D44       -2.85931   0.00000   0.00000   0.00002   0.00002  -2.85929
   D45       -1.73359   0.00000   0.00000   0.00001   0.00001  -1.73358
   D46        1.38355   0.00000   0.00000   0.00003   0.00003   1.38359
         Item               Value     Threshold  Converged?
 Maximum Force            0.000007     0.000450     YES
 RMS     Force            0.000001     0.000300     YES
 Maximum Displacement     0.000166     0.001800     YES
 RMS     Displacement     0.000044     0.001200     YES
 Predicted change in Energy=-9.286637D-10
 Optimization completed.
    -- Stationary point found.
                           ----------------------------
                           !   Optimized Parameters   !
                           ! (Angstroms and Degrees)  !
 --------------------------                            --------------------------
 ! Name  Definition              Value          Derivative Info.                !
 --------------------------------------------------------------------------------
 ! R1    R(1,2)                  1.0806         -DE/DX =    0.0                 !
 ! R2    R(2,3)                  1.0841         -DE/DX =    0.0                 !
 ! R3    R(2,4)                  1.0854         -DE/DX =    0.0                 !
 ! R4    R(2,5)                  1.5139         -DE/DX =    0.0                 !
 ! R5    R(5,6)                  1.1995         -DE/DX =    0.0                 !
 ! R6    R(5,21)                 1.3563         -DE/DX =    0.0                 !
 ! R7    R(7,9)                  1.073          -DE/DX =    0.0                 !
 ! R8    R(8,10)                 1.0735         -DE/DX =    0.0                 !
 ! R9    R(9,10)                 1.3862         -DE/DX =    0.0                 !
 ! R10   R(9,12)                 1.38           -DE/DX =    0.0                 !
 ! R11   R(10,13)                1.375          -DE/DX =    0.0                 !
 ! R12   R(11,12)                1.7432         -DE/DX =    0.0                 !
 ! R13   R(12,15)                1.3853         -DE/DX =    0.0                 !
 ! R14   R(13,14)                1.3279         -DE/DX =    0.0                 !
 ! R15   R(13,16)                1.3862         -DE/DX =    0.0                 !
 ! R16   R(15,16)                1.3863         -DE/DX =    0.0                 !
 ! R17   R(15,17)                1.074          -DE/DX =    0.0                 !
 ! R18   R(16,19)                1.5125         -DE/DX =    0.0                 !
 ! R19   R(18,19)                1.0787         -DE/DX =    0.0                 !
 ! R20   R(19,20)                1.0852         -DE/DX =    0.0                 !
 ! R21   R(19,21)                1.4477         -DE/DX =    0.0                 !
 ! R22   R(21,22)                0.9939         -DE/DX =    0.0                 !
 ! A1    A(1,2,3)              109.632          -DE/DX =    0.0                 !
 ! A2    A(1,2,4)              108.339          -DE/DX =    0.0                 !
 ! A3    A(1,2,5)              108.8186         -DE/DX =    0.0                 !
 ! A4    A(3,2,4)              108.3734         -DE/DX =    0.0                 !
 ! A5    A(3,2,5)              112.8477         -DE/DX =    0.0                 !
 ! A6    A(4,2,5)              108.7305         -DE/DX =    0.0                 !
 ! A7    A(2,5,6)              121.9807         -DE/DX =    0.0                 !
 ! A8    A(2,5,21)             115.2064         -DE/DX =    0.0                 !
 ! A9    A(6,5,21)             122.7913         -DE/DX =    0.0                 !
 ! A10   A(7,9,10)             120.4398         -DE/DX =    0.0                 !
 ! A11   A(7,9,12)             120.3653         -DE/DX =    0.0                 !
 ! A12   A(10,9,12)            119.1948         -DE/DX =    0.0                 !
 ! A13   A(8,10,9)             121.3185         -DE/DX =    0.0                 !
 ! A14   A(8,10,13)            119.5015         -DE/DX =    0.0                 !
 ! A15   A(9,10,13)            119.1795         -DE/DX =    0.0                 !
 ! A16   A(9,12,11)            119.7173         -DE/DX =    0.0                 !
 ! A17   A(9,12,15)            120.8956         -DE/DX =    0.0                 !
 ! A18   A(11,12,15)           119.387          -DE/DX =    0.0                 !
 ! A19   A(10,13,14)           118.605          -DE/DX =    0.0                 !
 ! A20   A(10,13,16)           122.7271         -DE/DX =    0.0                 !
 ! A21   A(14,13,16)           118.6672         -DE/DX =    0.0                 !
 ! A22   A(12,15,16)           120.6504         -DE/DX =    0.0                 !
 ! A23   A(12,15,17)           119.5714         -DE/DX =    0.0                 !
 ! A24   A(16,15,17)           119.7778         -DE/DX =    0.0                 !
 ! A25   A(13,16,15)           117.3524         -DE/DX =    0.0                 !
 ! A26   A(13,16,19)           120.9717         -DE/DX =    0.0                 !
 ! A27   A(15,16,19)           121.6755         -DE/DX =    0.0                 !
 ! A28   A(16,19,18)           110.8094         -DE/DX =    0.0                 !
 ! A29   A(16,19,20)           109.066          -DE/DX =    0.0                 !
 ! A30   A(16,19,21)           111.6271         -DE/DX =    0.0                 !
 ! A31   A(18,19,20)           107.5335         -DE/DX =    0.0                 !
 ! A32   A(18,19,21)           107.031          -DE/DX =    0.0                 !
 ! A33   A(20,19,21)           110.6864         -DE/DX =    0.0                 !
 ! A34   A(5,21,19)            122.6478         -DE/DX =    0.0                 !
 ! A35   A(5,21,22)            119.1383         -DE/DX =    0.0                 !
 ! A36   A(19,21,22)           118.1993         -DE/DX =    0.0                 !
 ! D1    D(1,2,5,6)             30.0073         -DE/DX =    0.0                 !
 ! D2    D(1,2,5,21)          -151.639          -DE/DX =    0.0                 !
 ! D3    D(3,2,5,6)            151.929          -DE/DX =    0.0                 !
 ! D4    D(3,2,5,21)           -29.7172         -DE/DX =    0.0                 !
 ! D5    D(4,2,5,6)            -87.8034         -DE/DX =    0.0                 !
 ! D6    D(4,2,5,21)            90.5504         -DE/DX =    0.0                 !
 ! D7    D(2,5,21,19)         -176.8925         -DE/DX =    0.0                 !
 ! D8    D(2,5,21,22)            4.521          -DE/DX =    0.0                 !
 ! D9    D(6,5,21,19)            1.4464         -DE/DX =    0.0                 !
 ! D10   D(6,5,21,22)         -177.1401         -DE/DX =    0.0                 !
 ! D11   D(7,9,10,8)             0.1921         -DE/DX =    0.0                 !
 ! D12   D(7,9,10,13)          179.9443         -DE/DX =    0.0                 !
 ! D13   D(12,9,10,8)         -179.6812         -DE/DX =    0.0                 !
 ! D14   D(12,9,10,13)           0.071          -DE/DX =    0.0                 !
 ! D15   D(7,9,12,11)            0.1218         -DE/DX =    0.0                 !
 ! D16   D(7,9,12,15)         -179.9034         -DE/DX =    0.0                 !
 ! D17   D(10,9,12,11)         179.9952         -DE/DX =    0.0                 !
 ! D18   D(10,9,12,15)          -0.03           -DE/DX =    0.0                 !
 ! D19   D(8,10,13,14)           0.0178         -DE/DX =    0.0                 !
 ! D20   D(8,10,13,16)         179.703          -DE/DX =    0.0                 !
 ! D21   D(9,10,13,14)        -179.7389         -DE/DX =    0.0                 !
 ! D22   D(9,10,13,16)          -0.0537         -DE/DX =    0.0                 !
 ! D23   D(9,12,15,16)          -0.0311         -DE/DX =    0.0                 !
 ! D24   D(9,12,15,17)         179.761          -DE/DX =    0.0                 !
 ! D25   D(11,12,15,16)        179.9438         -DE/DX =    0.0                 !
 ! D26   D(11,12,15,17)         -0.2641         -DE/DX =    0.0                 !
 ! D27   D(10,13,16,15)         -0.0064         -DE/DX =    0.0                 !
 ! D28   D(10,13,16,19)        179.7774         -DE/DX =    0.0                 !
 ! D29   D(14,13,16,15)        179.6786         -DE/DX =    0.0                 !
 ! D30   D(14,13,16,19)         -0.5376         -DE/DX =    0.0                 !
 ! D31   D(12,15,16,13)          0.0487         -DE/DX =    0.0                 !
 ! D32   D(12,15,16,19)       -179.7335         -DE/DX =    0.0                 !
 ! D33   D(17,15,16,13)       -179.743          -DE/DX =    0.0                 !
 ! D34   D(17,15,16,19)          0.4749         -DE/DX =    0.0                 !
 ! D35   D(13,16,19,18)         48.9673         -DE/DX =    0.0                 !
 ! D36   D(13,16,19,20)        167.1539         -DE/DX =    0.0                 !
 ! D37   D(13,16,19,21)        -70.2246         -DE/DX =    0.0                 !
 ! D38   D(15,16,19,18)       -131.2584         -DE/DX =    0.0                 !
 ! D39   D(15,16,19,20)        -13.0718         -DE/DX =    0.0                 !
 ! D40   D(15,16,19,21)        109.5497         -DE/DX =    0.0                 !
 ! D41   D(16,19,21,5)         138.9831         -DE/DX =    0.0                 !
 ! D42   D(16,19,21,22)        -42.4179         -DE/DX =    0.0                 !
 ! D43   D(18,19,21,5)          17.5743         -DE/DX =    0.0                 !
 ! D44   D(18,19,21,22)       -163.8266         -DE/DX =    0.0                 !
 ! D45   D(20,19,21,5)         -99.3273         -DE/DX =    0.0                 !
 ! D46   D(20,19,21,22)         79.2718         -DE/DX =    0.0                 !
 --------------------------------------------------------------------------------
 GradGradGradGradGradGradGradGradGradGradGradGradGradGradGradGradGradGrad

                          Input orientation:                          
 ---------------------------------------------------------------------
 Center     Atomic      Atomic             Coordinates (Angstroms)
 Number     Number       Type             X           Y           Z
 ---------------------------------------------------------------------
      1          1           0        5.222809   -0.859869   -1.088163
      2          6           0        4.208617   -0.585841   -1.341053
      3          1           0        3.806708   -1.295862   -2.054988
      4          1           0        4.225680    0.394622   -1.806234
      5          6           0        3.392571   -0.505992   -0.068453
      6          8           0        3.883157   -0.200742    0.982735
      7          1           0       -3.482794    1.622726   -0.681184
      8          1           0       -1.396370    2.966177   -0.503771
      9          6           0       -2.563329    1.165842   -0.369295
     10          6           0       -1.402683    1.917656   -0.273401
     11         17           0       -3.974532   -1.135879   -0.171876
     12          6           0       -2.522952   -0.177584   -0.056157
     13          6           0       -0.239158    1.306004    0.130009
     14          9           0        0.864773    2.038105    0.222964
     15          6           0       -1.342421   -0.778228    0.349568
     16          6           0       -0.172519   -0.041255    0.449589
     17          1           0       -1.336064   -1.824576    0.591818
     18          1           0        1.603445   -0.087133    1.655590
     19          6           0        1.130396   -0.674562    0.884372
     20          1           0        0.926188   -1.655995    1.299909
     21          7           0        2.069972   -0.769202   -0.212935
     22          1           0        1.728284   -1.058980   -1.100164
 ---------------------------------------------------------------------
                    Distance matrix (angstroms):
                    1          2          3          4          5
     1  H    0.000000
     2  C    1.080569   0.000000
     3  H    1.769232   1.084142   0.000000
     4  H    1.756030   1.085353   1.759304   0.000000
     5  C    2.124808   1.513875   2.177550   2.127219   0.000000
     6  O    2.552985   2.377860   3.229999   2.872304   1.199520
     7  H    9.061812   8.029383   7.971344   7.886352   7.223401
     8  H    7.667703   6.688330   6.902411   6.317970   5.931224
     9  C    8.077390   7.062008   7.034125   6.982136   6.193406
    10  C    7.230189   6.236511   6.374834   6.028904   5.376852
    11  Cl   9.246991   8.284530   8.007459   8.500414   7.394705
    12  C    7.843938   6.865250   6.731305   6.995300   5.924645
    13  C    6.000669   5.052307   5.283271   4.951205   4.063517
    14  F    5.395348   4.529077   4.995937   4.256099   3.598210
    15  C    6.721308   5.805965   5.706432   6.084966   4.761198
    16  C    5.669601   4.764171   4.866333   4.962145   3.632384
    17  H    6.838992   6.001162   5.808031   6.450464   4.953242
    18  H    4.607070   4.001937   4.481493   4.369488   2.519670
    19  C    4.546766   3.799452   4.023493   4.238313   2.460432
    20  H    4.979725   4.346752   4.436488   4.973912   3.045975
    21  N    3.273320   2.424886   2.585881   2.922356   1.356253
    22  H    3.500213   2.536521   2.299489   2.974640   2.034717
                    6          7          8          9         10
     6  O    0.000000
     7  H    7.768584   0.000000
     8  H    6.333442   2.487871   0.000000
     9  C    6.727014   1.073049   2.149670   0.000000
    10  C    5.831431   2.140124   1.073549   1.386189   0.000000
    11  Cl   7.996930   2.848000   4.856330   2.707100   3.993594
    12  C    6.489843   2.133793   3.369388   1.380029   2.385839
    13  C    4.471119   3.358500   2.120611   2.381328   1.375008
    14  F    3.834101   4.459973   2.549947   3.586572   2.324273
    15  C    5.295381   3.377607   3.840790   2.405574   2.767582
    16  C    4.093677   3.873681   3.383985   2.800648   2.423500
    17  H    5.479956   4.255922   4.914801   3.372316   3.841529
    18  H    2.379649   5.852688   4.794208   4.799178   4.095973
    19  C    2.794973   5.386095   4.643971   4.313047   3.804802
    20  H    3.310895   5.840707   5.478322   4.788083   4.546419
    21  N    2.245086   6.064139   5.104230   5.023577   4.391150
    22  H    3.117454   5.875579   5.130403   4.888962   4.398506
                   11         12         13         14         15
    11  Cl   0.000000
    12  C    1.743217   0.000000
    13  C    4.472912   2.729726   0.000000
    14  F    5.800771   4.057569   1.327884   0.000000
    15  C    2.706996   1.385294   2.368421   3.580428   0.000000
    16  C    4.004962   2.408091   1.386246   2.334753   1.386291
    17  H    2.831792   2.130999   3.349179   4.460946   1.074044
    18  H    5.962661   4.468267   2.768287   2.667338   3.295669
    19  C    5.233427   3.805067   2.523367   2.804742   2.532111
    20  H    5.143319   3.990135   3.391185   3.848371   2.611553
    21  N    6.055755   4.633524   3.123487   3.086014   3.458456
    22  H    5.778386   4.465402   3.313201   3.476817   3.407312
                   16         17         18         19         20
    16  C    0.000000
    17  H    2.134081   0.000000
    18  H    2.147229   3.576455   0.000000
    19  C    1.512515   2.737069   1.078715   0.000000
    20  H    2.130161   2.376467   1.745427   1.085165   0.000000
    21  N    2.449002   3.655478   2.043098   1.447702   2.093643
    22  H    2.655287   3.583179   2.924765   2.107992   2.600026
                   21         22
    21  N    0.000000
    22  H    0.993930   0.000000
 Stoichiometry    C9H9ClFNO
 Framework group  C1[X(C9H9ClFNO)]
 Deg. of freedom    60
 Full point group                 C1      NOp   1
 Largest Abelian subgroup         C1      NOp   1
 Largest concise Abelian subgroup C1      NOp   1
                         Standard orientation:                         
 ---------------------------------------------------------------------
 Center     Atomic      Atomic             Coordinates (Angstroms)
 Number     Number       Type             X           Y           Z
 ---------------------------------------------------------------------
      1          1           0       -5.222809   -0.859869    1.088163
      2          6           0       -4.208617   -0.585841    1.341053
      3          1           0       -3.806708   -1.295862    2.054988
      4          1           0       -4.225680    0.394622    1.806234
      5          6           0       -3.392571   -0.505992    0.068453
      6          8           0       -3.883157   -0.200742   -0.982735
      7          1           0        3.482794    1.622726    0.681184
      8          1           0        1.396370    2.966177    0.503771
      9          6           0        2.563329    1.165842    0.369295
     10          6           0        1.402683    1.917656    0.273401
     11         17           0        3.974532   -1.135879    0.171876
     12          6           0        2.522952   -0.177584    0.056157
     13          6           0        0.239158    1.306004   -0.130009
     14          9           0       -0.864773    2.038105   -0.222964
     15          6           0        1.342421   -0.778228   -0.349568
     16          6           0        0.172519   -0.041255   -0.449589
     17          1           0        1.336064   -1.824576   -0.591818
     18          1           0       -1.603445   -0.087133   -1.655590
     19          6           0       -1.130396   -0.674562   -0.884372
     20          1           0       -0.926188   -1.655995   -1.299909
     21          7           0       -2.069972   -0.769202    0.212935
     22          1           0       -1.728284   -1.058980    1.100164
 ---------------------------------------------------------------------
 Rotational constants (GHZ):      1.5502677      0.3181517      0.2851038

 Test job not archived.
 1\1\GINC-LAC-349\FOpt\RHF\6-31G(d)\C9H9Cl1F1N1O1\SONGLIN3\29-Nov-2017\
 0\\#HF/6-31G* SCF=tight Test Pop=MK iop(6/33=2) iop(6/42=6) opt # iop(
 6/50=1)\\remark line goes here\\0,1\H,5.222809,-0.859869,-1.088163\C,4
 .208617,-0.585841,-1.341053\H,3.806708,-1.295862,-2.054988\H,4.22568,0
 .394622,-1.806234\C,3.392571,-0.505992,-0.068453\O,3.883157,-0.200742,
 0.982735\H,-3.482794,1.622726,-0.681184\H,-1.39637,2.966177,-0.503771\
 C,-2.563329,1.165842,-0.369295\C,-1.402683,1.917656,-0.273401\Cl,-3.97
 4532,-1.135879,-0.171876\C,-2.522952,-0.177584,-0.056157\C,-0.239158,1
 .306004,0.130009\F,0.864773,2.038105,0.222964\C,-1.342421,-0.778228,0.
 349568\C,-0.172519,-0.041255,0.449589\H,-1.336064,-1.824576,0.591818\H
 ,1.603445,-0.087133,1.65559\C,1.130396,-0.674562,0.884372\H,0.926188,-
 1.655995,1.299909\N,2.069972,-0.769202,-0.212935\H,1.728284,-1.05898,-
 1.100164\\Version=ES64L-G09RevD.01\State=1-A\HF=-1034.3028738\RMSD=5.3
 46e-09\RMSF=2.322e-06\Dipole=-0.6345506,-0.2015251,-1.1737079\Quadrupo
 le=-8.1737171,5.9857431,2.187974,-6.1962771,-8.2894151,-0.8763351\PG=C
 01 [X(C9H9Cl1F1N1O1)]\\@


 SCIENCE IS LONG AND LIFE IS SHORT.

                     DON MOSER IN THE FEBRUARY 1979 SMITHSONIAN
 Job cpu time:       0 days  0 hours  0 minutes 39.0 seconds.
 File lengths (MBytes):  RWF=    134 Int=      0 D2E=      0 Chk=      5 Scr=      2
 Normal termination of Gaussian 09 at Wed Nov 29 20:38:00 2017.
