 Entering Gaussian System, Link 0=g09
 Initial command:
 /opt/software/Gaussian/g09/l1.exe "/mnt/ls15/scratch/users/songlin3/Gau-21855.inp" -scrdir="/mnt/ls15/scratch/users/songlin3/"
 Entering Link 1 = /opt/software/Gaussian/g09/l1.exe PID=     21856.
  
 Copyright (c) 1988,1990,1992,1993,1995,1998,2003,2009,2013,
            Gaussian, Inc.  All Rights Reserved.
  
 This is part of the Gaussian(R) 09 program.  It is based on
 the Gaussian(R) 03 system (copyright 2003, Gaussian, Inc.),
 the Gaussian(R) 98 system (copyright 1998, Gaussian, Inc.),
 the Gaussian(R) 94 system (copyright 1995, Gaussian, Inc.),
 the Gaussian 92(TM) system (copyright 1992, Gaussian, Inc.),
 the Gaussian 90(TM) system (copyright 1990, Gaussian, Inc.),
 the Gaussian 88(TM) system (copyright 1988, Gaussian, Inc.),
 the Gaussian 86(TM) system (copyright 1986, Carnegie Mellon
 University), and the Gaussian 82(TM) system (copyright 1983,
 Carnegie Mellon University). Gaussian is a federally registered
 trademark of Gaussian, Inc.
  
 This software contains proprietary and confidential information,
 including trade secrets, belonging to Gaussian, Inc.
  
 This software is provided under written license and may be
 used, copied, transmitted, or stored only in accord with that
 written license.
  
 The following legend is applicable only to US Government
 contracts under FAR:
  
                    RESTRICTED RIGHTS LEGEND
  
 Use, reproduction and disclosure by the US Government is
 subject to restrictions as set forth in subparagraphs (a)
 and (c) of the Commercial Computer Software - Restricted
 Rights clause in FAR 52.227-19.
  
 Gaussian, Inc.
 340 Quinnipiac St., Bldg. 40, Wallingford CT 06492
  
  
 ---------------------------------------------------------------
 Warning -- This program may not be used in any manner that
 competes with the business of Gaussian, Inc. or will provide
 assistance to any competitor of Gaussian, Inc.  The licensee
 of this program is prohibited from giving any competitor of
 Gaussian, Inc. access to this program.  By using this program,
 the user acknowledges that Gaussian, Inc. is engaged in the
 business of creating and licensing software in the field of
 computational chemistry and represents and warrants to the
 licensee that it is not a competitor of Gaussian, Inc. and that
 it will not use this program in any manner prohibited above.
 ---------------------------------------------------------------
  

 Cite this work as:
 Gaussian 09, Revision D.01,
 M. J. Frisch, G. W. Trucks, H. B. Schlegel, G. E. Scuseria, 
 M. A. Robb, J. R. Cheeseman, G. Scalmani, V. Barone, B. Mennucci, 
 G. A. Petersson, H. Nakatsuji, M. Caricato, X. Li, H. P. Hratchian, 
 A. F. Izmaylov, J. Bloino, G. Zheng, J. L. Sonnenberg, M. Hada, 
 M. Ehara, K. Toyota, R. Fukuda, J. Hasegawa, M. Ishida, T. Nakajima, 
 Y. Honda, O. Kitao, H. Nakai, T. Vreven, J. A. Montgomery, Jr., 
 J. E. Peralta, F. Ogliaro, M. Bearpark, J. J. Heyd, E. Brothers, 
 K. N. Kudin, V. N. Staroverov, T. Keith, R. Kobayashi, J. Normand, 
 K. Raghavachari, A. Rendell, J. C. Burant, S. S. Iyengar, J. Tomasi, 
 M. Cossi, N. Rega, J. M. Millam, M. Klene, J. E. Knox, J. B. Cross, 
 V. Bakken, C. Adamo, J. Jaramillo, R. Gomperts, R. E. Stratmann, 
 O. Yazyev, A. J. Austin, R. Cammi, C. Pomelli, J. W. Ochterski, 
 R. L. Martin, K. Morokuma, V. G. Zakrzewski, G. A. Voth, 
 P. Salvador, J. J. Dannenberg, S. Dapprich, A. D. Daniels, 
 O. Farkas, J. B. Foresman, J. V. Ortiz, J. Cioslowski, 
 and D. J. Fox, Gaussian, Inc., Wallingford CT, 2013.
 
 ******************************************
 Gaussian 09:  ES64L-G09RevD.01 24-Apr-2013
                29-Nov-2017 
 ******************************************
 %RWF=myrwf
 %NoSave
 %chk=opt.chk
 %NprocShared=4
 Will use up to    4 processors via shared memory.
 %Mem=16GB
 ------------------------------------------------------------
 #HF/6-31G* SCF=tight Test Pop=MK iop(6/33=2) iop(6/42=6) opt
 ------------------------------------------------------------
 1/18=20,19=15,38=1/1,3;
 2/9=110,12=2,17=6,18=5,40=1/2;
 3/5=1,6=6,7=1,11=9,16=1,25=1,30=1,71=1/1,2,3;
 4//1;
 5/5=2,32=2,38=5/2;
 6/7=2,8=2,9=2,10=2,15=8,20=1,28=1,33=2,42=6/1,2;
 7//1,2,3,16;
 1/18=20,19=15/3(2);
 2/9=110/2;
 99//99;
 2/9=110/2;
 3/5=1,6=6,7=1,11=9,16=1,25=1,30=1,71=1/1,2,3;
 4/5=5,16=3,69=1/1;
 5/5=2,32=2,38=5/2;
 7//1,2,3,16;
 1/18=20,19=15/3(-5);
 2/9=110/2;
 6/7=2,8=2,9=2,10=2,15=8,19=2,20=1,28=1,33=2,42=6/1,2;
 99/9=1/99;
 ---------------------
 remark line goes here
 ---------------------
 Symbolic Z-matrix:
 Charge =  0 Multiplicity = 1
 H                     18.493   -12.867    20.739 
 C                     18.049   -11.913    21.022 
 H                     18.689   -11.099    20.682 
 H                     17.947   -11.866    22.106 
 C                     16.648   -11.74     20.385 
 O                     16.19    -12.629    19.667 
 H                     10.801   -10.531    24.069 
 H                     11.148   -12.464    22.543 
 C                     11.568   -10.486    23.308 
 C                     11.765   -11.582    22.444 
 Cl                    12.17    -8.009     24.263 
 C                     12.375   -9.34      23.182 
 C                     12.754   -11.527    21.441 
 F                     12.893   -12.568    20.587 
 C                     13.373   -9.291     22.187 
 C                     13.57    -10.38     21.311 
 H                     13.993   -8.412     22.104 
 H                     14.328   -10.883    19.353 
 C                     14.626   -10.286    20.218 
 H                     14.635   -9.251     19.887 
 N                     15.984   -10.608    20.654 
 H                     16.483   -9.896     21.185 
 

 GradGradGradGradGradGradGradGradGradGradGradGradGradGradGradGradGradGrad
 Berny optimization.
 Initialization pass.
                           ----------------------------
                           !    Initial Parameters    !
                           ! (Angstroms and Degrees)  !
 --------------------------                            --------------------------
 ! Name  Definition              Value          Derivative Info.                !
 --------------------------------------------------------------------------------
 ! R1    R(1,2)                  1.0897         estimate D2E/DX2                !
 ! R2    R(2,3)                  1.0899         estimate D2E/DX2                !
 ! R3    R(2,4)                  1.0898         estimate D2E/DX2                !
 ! R4    R(2,5)                  1.5487         estimate D2E/DX2                !
 ! R5    R(5,6)                  1.2311         estimate D2E/DX2                !
 ! R6    R(5,21)                 1.3397         estimate D2E/DX2                !
 ! R7    R(7,9)                  1.0814         estimate D2E/DX2                !
 ! R8    R(8,10)                 1.0809         estimate D2E/DX2                !
 ! R9    R(9,10)                 1.4094         estimate D2E/DX2                !
 ! R10   R(9,12)                 1.4073         estimate D2E/DX2                !
 ! R11   R(10,13)                1.4097         estimate D2E/DX2                !
 ! R12   R(11,12)                1.7269         estimate D2E/DX2                !
 ! R13   R(12,15)                1.4101         estimate D2E/DX2                !
 ! R14   R(13,14)                1.3536         estimate D2E/DX2                !
 ! R15   R(13,16)                1.4136         estimate D2E/DX2                !
 ! R16   R(15,16)                1.4114         estimate D2E/DX2                !
 ! R17   R(15,17)                1.0789         estimate D2E/DX2                !
 ! R18   R(16,19)                1.5227         estimate D2E/DX2                !
 ! R19   R(18,19)                1.0924         estimate D2E/DX2                !
 ! R20   R(19,20)                1.0867         estimate D2E/DX2                !
 ! R21   R(19,21)                1.4622         estimate D2E/DX2                !
 ! R22   R(21,22)                1.0188         estimate D2E/DX2                !
 ! A1    A(1,2,3)              109.4876         estimate D2E/DX2                !
 ! A2    A(1,2,4)              109.5256         estimate D2E/DX2                !
 ! A3    A(1,2,5)              111.0746         estimate D2E/DX2                !
 ! A4    A(3,2,4)              109.4544         estimate D2E/DX2                !
 ! A5    A(3,2,5)              108.6313         estimate D2E/DX2                !
 ! A6    A(4,2,5)              108.6408         estimate D2E/DX2                !
 ! A7    A(2,5,6)              119.72           estimate D2E/DX2                !
 ! A8    A(2,5,21)             117.3985         estimate D2E/DX2                !
 ! A9    A(6,5,21)             122.8812         estimate D2E/DX2                !
 ! A10   A(7,9,10)             119.8784         estimate D2E/DX2                !
 ! A11   A(7,9,12)             120.2396         estimate D2E/DX2                !
 ! A12   A(10,9,12)            119.8811         estimate D2E/DX2                !
 ! A13   A(8,10,9)             119.9059         estimate D2E/DX2                !
 ! A14   A(8,10,13)            119.8327         estimate D2E/DX2                !
 ! A15   A(9,10,13)            120.2576         estimate D2E/DX2                !
 ! A16   A(9,12,11)            120.2337         estimate D2E/DX2                !
 ! A17   A(9,12,15)            119.8233         estimate D2E/DX2                !
 ! A18   A(11,12,15)           119.9296         estimate D2E/DX2                !
 ! A19   A(10,13,14)           119.4018         estimate D2E/DX2                !
 ! A20   A(10,13,16)           120.137          estimate D2E/DX2                !
 ! A21   A(14,13,16)           120.444          estimate D2E/DX2                !
 ! A22   A(12,15,16)           120.6581         estimate D2E/DX2                !
 ! A23   A(12,15,17)           119.2962         estimate D2E/DX2                !
 ! A24   A(16,15,17)           120.0445         estimate D2E/DX2                !
 ! A25   A(13,16,15)           119.2348         estimate D2E/DX2                !
 ! A26   A(13,16,19)           121.092          estimate D2E/DX2                !
 ! A27   A(15,16,19)           119.6481         estimate D2E/DX2                !
 ! A28   A(16,19,18)           110.209          estimate D2E/DX2                !
 ! A29   A(16,19,20)           106.4502         estimate D2E/DX2                !
 ! A30   A(16,19,21)           114.6114         estimate D2E/DX2                !
 ! A31   A(18,19,20)           106.3539         estimate D2E/DX2                !
 ! A32   A(18,19,21)           111.6605         estimate D2E/DX2                !
 ! A33   A(20,19,21)           107.0306         estimate D2E/DX2                !
 ! A34   A(5,21,19)            125.9123         estimate D2E/DX2                !
 ! A35   A(5,21,22)            116.9            estimate D2E/DX2                !
 ! A36   A(19,21,22)           117.1563         estimate D2E/DX2                !
 ! D1    D(1,2,5,6)              0.0055         estimate D2E/DX2                !
 ! D2    D(1,2,5,21)           179.8192         estimate D2E/DX2                !
 ! D3    D(3,2,5,6)            120.4836         estimate D2E/DX2                !
 ! D4    D(3,2,5,21)           -59.7027         estimate D2E/DX2                !
 ! D5    D(4,2,5,6)           -120.5259         estimate D2E/DX2                !
 ! D6    D(4,2,5,21)            59.2878         estimate D2E/DX2                !
 ! D7    D(2,5,21,19)         -176.2281         estimate D2E/DX2                !
 ! D8    D(2,5,21,22)            5.8782         estimate D2E/DX2                !
 ! D9    D(6,5,21,19)            3.5792         estimate D2E/DX2                !
 ! D10   D(6,5,21,22)         -174.3145         estimate D2E/DX2                !
 ! D11   D(7,9,10,8)             0.1035         estimate D2E/DX2                !
 ! D12   D(7,9,10,13)          179.3978         estimate D2E/DX2                !
 ! D13   D(12,9,10,8)          179.7558         estimate D2E/DX2                !
 ! D14   D(12,9,10,13)          -0.95           estimate D2E/DX2                !
 ! D15   D(7,9,12,11)            1.3008         estimate D2E/DX2                !
 ! D16   D(7,9,12,15)          179.9682         estimate D2E/DX2                !
 ! D17   D(10,9,12,11)        -178.3502         estimate D2E/DX2                !
 ! D18   D(10,9,12,15)           0.3172         estimate D2E/DX2                !
 ! D19   D(8,10,13,14)           1.8916         estimate D2E/DX2                !
 ! D20   D(8,10,13,16)        -179.6127         estimate D2E/DX2                !
 ! D21   D(9,10,13,14)        -177.4031         estimate D2E/DX2                !
 ! D22   D(9,10,13,16)           1.0925         estimate D2E/DX2                !
 ! D23   D(9,12,15,16)           0.1738         estimate D2E/DX2                !
 ! D24   D(9,12,15,17)        -179.4263         estimate D2E/DX2                !
 ! D25   D(11,12,15,16)        178.8453         estimate D2E/DX2                !
 ! D26   D(11,12,15,17)         -0.7548         estimate D2E/DX2                !
 ! D27   D(10,13,16,15)         -0.5966         estimate D2E/DX2                !
 ! D28   D(10,13,16,19)       -178.7669         estimate D2E/DX2                !
 ! D29   D(14,13,16,15)        177.8832         estimate D2E/DX2                !
 ! D30   D(14,13,16,19)         -0.2871         estimate D2E/DX2                !
 ! D31   D(12,15,16,13)         -0.0344         estimate D2E/DX2                !
 ! D32   D(12,15,16,19)        178.1627         estimate D2E/DX2                !
 ! D33   D(17,15,16,13)        179.5627         estimate D2E/DX2                !
 ! D34   D(17,15,16,19)         -2.2401         estimate D2E/DX2                !
 ! D35   D(13,16,19,18)         28.4692         estimate D2E/DX2                !
 ! D36   D(13,16,19,20)        143.4009         estimate D2E/DX2                !
 ! D37   D(13,16,19,21)        -98.4898         estimate D2E/DX2                !
 ! D38   D(15,16,19,18)       -149.6936         estimate D2E/DX2                !
 ! D39   D(15,16,19,20)        -34.7619         estimate D2E/DX2                !
 ! D40   D(15,16,19,21)         83.3474         estimate D2E/DX2                !
 ! D41   D(16,19,21,5)         105.0687         estimate D2E/DX2                !
 ! D42   D(16,19,21,22)        -77.0425         estimate D2E/DX2                !
 ! D43   D(18,19,21,5)         -21.1423         estimate D2E/DX2                !
 ! D44   D(18,19,21,22)        156.7466         estimate D2E/DX2                !
 ! D45   D(20,19,21,5)        -137.1512         estimate D2E/DX2                !
 ! D46   D(20,19,21,22)         40.7377         estimate D2E/DX2                !
 --------------------------------------------------------------------------------
 Trust Radius=3.00D-01 FncErr=1.00D-07 GrdErr=1.00D-07
 Number of steps in this run=    114 maximum allowed number of steps=    132.
 GradGradGradGradGradGradGradGradGradGradGradGradGradGradGradGradGradGrad

                          Input orientation:                          
 ---------------------------------------------------------------------
 Center     Atomic      Atomic             Coordinates (Angstroms)
 Number     Number       Type             X           Y           Z
 ---------------------------------------------------------------------
      1          1           0       18.493000  -12.867000   20.739000
      2          6           0       18.049000  -11.913000   21.022000
      3          1           0       18.689000  -11.099000   20.682000
      4          1           0       17.947000  -11.866000   22.106000
      5          6           0       16.648000  -11.740000   20.385000
      6          8           0       16.190000  -12.629000   19.667000
      7          1           0       10.801000  -10.531000   24.069000
      8          1           0       11.148000  -12.464000   22.543000
      9          6           0       11.568000  -10.486000   23.308000
     10          6           0       11.765000  -11.582000   22.444000
     11         17           0       12.170000   -8.009000   24.263000
     12          6           0       12.375000   -9.340000   23.182000
     13          6           0       12.754000  -11.527000   21.441000
     14          9           0       12.893000  -12.568000   20.587000
     15          6           0       13.373000   -9.291000   22.187000
     16          6           0       13.570000  -10.380000   21.311000
     17          1           0       13.993000   -8.412000   22.104000
     18          1           0       14.328000  -10.883000   19.353000
     19          6           0       14.626000  -10.286000   20.218000
     20          1           0       14.635000   -9.251000   19.887000
     21          7           0       15.984000  -10.608000   20.654000
     22          1           0       16.483000   -9.896000   21.185000
 ---------------------------------------------------------------------
                    Distance matrix (angstroms):
                    1          2          3          4          5
     1  H    0.000000
     2  C    1.089652   0.000000
     3  H    1.779744   1.089861   0.000000
     4  H    1.780114   1.089802   1.779502   0.000000
     5  C    2.190769   1.548709   2.159808   2.159888   0.000000
     6  O    2.551399   2.409266   3.100988   3.101280   1.231101
     7  H    8.701302   7.982959   8.603193   7.530001   7.015764
     8  H    7.574025   7.088078   7.886268   6.839223   5.952406
     9  C    7.760448   7.018938   7.614479   6.636328   5.993567
    10  C    7.058628   6.451380   7.160985   6.197743   5.301710
    11  Cl   8.717744   7.765819   8.054131   7.273433   7.000838
    12  C    7.472476   6.593952   7.015032   6.211734   5.642848
    13  C    5.935025   5.325559   5.998624   5.246370   4.040265
    14  F    5.610036   5.215610   5.980017   5.323822   3.850508
    15  C    6.410841   5.486081   5.813239   5.249634   4.468829
    16  C    5.545113   4.742895   5.207376   4.690240   3.490152
    17  H    6.477673   5.466156   5.594146   5.250165   4.591249
    18  H    4.817103   4.206222   4.564123   4.652146   2.679902
    19  C    4.678321   3.874335   4.169440   4.134004   2.496095
    20  H    5.355887   4.475474   4.525709   4.767759   3.239644
    21  N    3.377186   2.470359   2.749344   2.746677   1.339657
    22  H    3.614672   2.558752   2.562548   2.621533   2.016820
                    6          7          8          9         10
     6  O    0.000000
     7  H    7.267773   0.000000
     8  H    5.806924   2.487081   0.000000
     9  C    6.261966   1.081404   2.161969   0.000000
    10  C    5.328092   2.162064   1.080932   1.409440   0.000000
    11  Cl   7.656893   2.876157   4.883637   2.722124   4.029779
    12  C    6.142229   2.163961   3.416610   1.407281   2.437890
    13  C    4.020892   3.422369   2.161391   2.444579   1.409665
    14  F    3.423497   4.544244   2.623314   3.673444   2.386007
    15  C    5.042632   3.419753   3.891695   2.437764   2.810764
    16  C    3.824283   3.911103   3.424466   2.829708   2.446736
    17  H    5.343114   4.305839   4.970458   3.410530   3.889535
    18  H    2.571800   5.899516   4.773684   4.839136   4.075764
    19  C    2.870426   5.433309   4.716545   4.351949   3.849677
    20  H    3.725226   5.816105   5.434784   4.757621   4.495410
    21  N    2.258550   6.207386   5.513615   5.153606   4.685375
    22  H    3.139978   6.403578   6.074620   5.386321   5.165966
                   11         12         13         14         15
    11  Cl   0.000000
    12  C    1.726889   0.000000
    13  C    4.547644   2.820938   0.000000
    14  F    5.900863   4.174007   1.353631   0.000000
    15  C    2.720388   1.410117   2.437083   3.678196   0.000000
    16  C    4.036824   2.451584   1.413635   2.402051   1.411420
    17  H    2.854298   2.154343   3.417296   4.558906   1.078856
    18  H    6.084812   4.566870   2.692946   2.534010   3.387926
    19  C    5.251542   3.840210   2.557380   2.889113   2.537123
    20  H    5.173796   3.996567   3.336653   3.811437   2.623784
    21  N    5.858863   4.585138   3.449178   3.660652   3.301802
    22  H    5.624662   4.601392   4.078129   4.515007   3.322970
                   16         17         18         19         20
    16  C    0.000000
    17  H    2.163516   0.000000
    18  H    2.159013   3.712959   0.000000
    19  C    1.522702   2.733050   1.092446   0.000000
    20  H    2.106334   2.455845   1.744371   1.086677   0.000000
    21  N    2.512176   3.299848   2.123808   1.462171   2.061441
    22  H    2.955622   3.040874   2.995733   2.129704   2.348602
                   21         22
    21  N    0.000000
    22  H    1.018777   0.000000
 Stoichiometry    C9H9ClFNO
 Framework group  C1[X(C9H9ClFNO)]
 Deg. of freedom    60
 Full point group                 C1      NOp   1
 Largest Abelian subgroup         C1      NOp   1
 Largest concise Abelian subgroup C1      NOp   1
                         Standard orientation:                         
 ---------------------------------------------------------------------
 Center     Atomic      Atomic             Coordinates (Angstroms)
 Number     Number       Type             X           Y           Z
 ---------------------------------------------------------------------
      1          1           0        4.862550   -1.072634   -1.505464
      2          6           0        3.963017   -1.533119   -1.097867
      3          1           0        4.235679   -2.419968   -0.526071
      4          1           0        3.297825   -1.817162   -1.913040
      5          6           0        3.210595   -0.553855   -0.163307
      6          8           0        3.659732    0.576830    0.024940
      7          1           0       -3.487287    1.333729   -1.055687
      8          1           0       -1.561563    2.906297   -0.990946
      9          6           0       -2.554411    1.025157   -0.604068
     10          6           0       -1.463003    1.916268   -0.568404
     11         17           0       -3.741357   -1.379257   -0.135125
     12          6           0       -2.423901   -0.265448   -0.058406
     13          6           0       -0.247311    1.526868    0.029606
     14          9           0        0.772212    2.414411    0.101446
     15          6           0       -1.203225   -0.658865    0.527771
     16          6           0       -0.108662    0.230868    0.576894
     17          1           0       -1.109570   -1.653442    0.935171
     18          1           0        1.695049    0.662148    1.682317
     19          6           0        1.185069   -0.203114    1.252571
     20          1           0        0.898532   -0.835676    2.088411
     21          7           0        2.079546   -0.991246    0.405990
     22          1           0        1.838268   -1.970098    0.259226
 ---------------------------------------------------------------------
 Rotational constants (GHZ):      1.2152825      0.3502666      0.2936801
 Standard basis: 6-31G(d) (6D, 7F)
 There are   217 symmetry adapted cartesian basis functions of A   symmetry.
 There are   217 symmetry adapted basis functions of A   symmetry.
   217 basis functions,   424 primitive gaussians,   217 cartesian basis functions
    52 alpha electrons       52 beta electrons
       nuclear repulsion energy       840.2847647880 Hartrees.
 NAtoms=   22 NActive=   22 NUniq=   22 SFac= 1.00D+00 NAtFMM=   60 NAOKFM=F Big=F
 Integral buffers will be    131072 words long.
 Raffenetti 1 integral format.
 Two-electron integral symmetry is turned on.
 One-electron integrals computed using PRISM.
 NBasis=   217 RedAO= T EigKep=  4.72D-04  NBF=   217
 NBsUse=   217 1.00D-06 EigRej= -1.00D+00 NBFU=   217
 ExpMin= 1.43D-01 ExpMax= 2.52D+04 ExpMxC= 3.78D+03 IAcc=1 IRadAn=         1 AccDes= 0.00D+00
 Harris functional with IExCor=  205 and IRadAn=       1 diagonalized for initial guess.
 HarFok:  IExCor=  205 AccDes= 0.00D+00 IRadAn=         1 IDoV= 1 UseB2=F ITyADJ=14
 ICtDFT=  3500011 ScaDFX=  1.000000  1.000000  1.000000  1.000000
 FoFCou: FMM=F IPFlag=           0 FMFlag=      100000 FMFlg1=           0
         NFxFlg=           0 DoJE=T BraDBF=F KetDBF=T FulRan=T
         wScrn=  0.000000 ICntrl=     500 IOpCl=  0 I1Cent=   200000004 NGrid=           0
         NMat0=    1 NMatS0=      1 NMatT0=    0 NMatD0=    1 NMtDS0=    0 NMtDT0=    0
 Petite list used in FoFCou.
 Keep R1 ints in memory in canonical form, NReq=285086791.
 Requested convergence on RMS density matrix=1.00D-08 within 128 cycles.
 Requested convergence on MAX density matrix=1.00D-06.
 Requested convergence on             energy=1.00D-06.
 No special actions if energy rises.
 SCF Done:  E(RHF) =  -1034.28766155     A.U. after   15 cycles
            NFock= 15  Conv=0.78D-08     -V/T= 2.0017

 **********************************************************************

            Population analysis using the SCF density.

 **********************************************************************

 Orbital symmetries:
 BldTbl:  Degeneracy threshold= 1.00D-02
       Occupied  (A) (A) (A) (A) (A) (A) (A) (A) (A) (A) (A) (A)
                 (A) (A) (A) (A) (A) (A) (A) (A) (A) (A) (A) (A)
                 (A) (A) (A) (A) (A) (A) (A) (A) (A) (A) (A) (A)
                 (A) (A) (A) (A) (A) (A) (A) (A) (A) (A) (A) (A)
                 (A) (A) (A) (A)
       Virtual   (A) (A) (A) (A) (A) (A) (A) (A) (A) (A) (A) (A)
                 (A) (A) (A) (A) (A) (A) (A) (A) (A) (A) (A) (A)
                 (A) (A) (A) (A) (A) (A) (A) (A) (A) (A) (A) (A)
                 (A) (A) (A) (A) (A) (A) (A) (A) (A) (A) (A) (A)
                 (A) (A) (A) (A) (A) (A) (A) (A) (A) (A) (A) (A)
                 (A) (A) (A) (A) (A) (A) (A) (A) (A) (A) (A) (A)
                 (A) (A) (A) (A) (A) (A) (A) (A) (A) (A) (A) (A)
                 (A) (A) (A) (A) (A) (A) (A) (A) (A) (A) (A) (A)
                 (A) (A) (A) (A) (A) (A) (A) (A) (A) (A) (A) (A)
                 (A) (A) (A) (A) (A) (A) (A) (A) (A) (A) (A) (A)
                 (A) (A) (A) (A) (A) (A) (A) (A) (A) (A) (A) (A)
                 (A) (A) (A) (A) (A) (A) (A) (A) (A) (A) (A) (A)
                 (A) (A) (A) (A) (A) (A) (A) (A) (A) (A) (A) (A)
                 (A) (A) (A) (A) (A) (A) (A) (A) (A)
 The electronic state is 1-A.
 Alpha  occ. eigenvalues -- -104.83866 -26.31856 -20.51357 -15.59958 -11.35101
 Alpha  occ. eigenvalues --  -11.34867 -11.31856 -11.28874 -11.27406 -11.27287
 Alpha  occ. eigenvalues --  -11.27275 -11.26666 -11.23916 -10.57216  -8.04160
 Alpha  occ. eigenvalues --   -8.03821  -8.03816  -1.62386  -1.36645  -1.23836
 Alpha  occ. eigenvalues --   -1.19775  -1.13150  -1.06377  -1.00985  -0.99806
 Alpha  occ. eigenvalues --   -0.94380  -0.86231  -0.82420  -0.78896  -0.74832
 Alpha  occ. eigenvalues --   -0.71748  -0.69551  -0.68608  -0.66584  -0.65040
 Alpha  occ. eigenvalues --   -0.63678  -0.62267  -0.61956  -0.59591  -0.57481
 Alpha  occ. eigenvalues --   -0.56565  -0.55900  -0.54593  -0.53783  -0.52928
 Alpha  occ. eigenvalues --   -0.50279  -0.47046  -0.46360  -0.40963  -0.39234
 Alpha  occ. eigenvalues --   -0.35804  -0.33521
 Alpha virt. eigenvalues --    0.10565   0.11950   0.18787   0.20391   0.20920
 Alpha virt. eigenvalues --    0.25479   0.26258   0.27915   0.29377   0.30067
 Alpha virt. eigenvalues --    0.30828   0.31350   0.32496   0.33007   0.36504
 Alpha virt. eigenvalues --    0.38414   0.39904   0.43708   0.43986   0.44490
 Alpha virt. eigenvalues --    0.48476   0.49100   0.50785   0.57384   0.58862
 Alpha virt. eigenvalues --    0.60082   0.61385   0.62638   0.67604   0.69722
 Alpha virt. eigenvalues --    0.71409   0.72432   0.73687   0.74776   0.75555
 Alpha virt. eigenvalues --    0.77633   0.79682   0.80169   0.81678   0.82413
 Alpha virt. eigenvalues --    0.83058   0.83382   0.85544   0.86977   0.88164
 Alpha virt. eigenvalues --    0.89175   0.92374   0.94357   0.95689   0.98206
 Alpha virt. eigenvalues --    0.99321   1.00613   1.03614   1.07170   1.07649
 Alpha virt. eigenvalues --    1.08582   1.09864   1.12010   1.13040   1.13736
 Alpha virt. eigenvalues --    1.14009   1.14388   1.16277   1.17100   1.17508
 Alpha virt. eigenvalues --    1.17978   1.18274   1.19549   1.20253   1.21912
 Alpha virt. eigenvalues --    1.24932   1.26676   1.30502   1.34096   1.35180
 Alpha virt. eigenvalues --    1.38811   1.39507   1.43031   1.46602   1.47207
 Alpha virt. eigenvalues --    1.48175   1.53070   1.54605   1.57717   1.61190
 Alpha virt. eigenvalues --    1.63681   1.64661   1.66909   1.68819   1.69740
 Alpha virt. eigenvalues --    1.72176   1.72659   1.74040   1.77217   1.78501
 Alpha virt. eigenvalues --    1.81794   1.82640   1.90757   1.94880   2.01721
 Alpha virt. eigenvalues --    2.03575   2.04738   2.05323   2.10024   2.11689
 Alpha virt. eigenvalues --    2.13191   2.13434   2.14367   2.20957   2.21657
 Alpha virt. eigenvalues --    2.22945   2.23329   2.24770   2.27598   2.29896
 Alpha virt. eigenvalues --    2.33244   2.35741   2.37154   2.39238   2.40261
 Alpha virt. eigenvalues --    2.46071   2.49207   2.50368   2.51875   2.53292
 Alpha virt. eigenvalues --    2.55490   2.57950   2.61121   2.63171   2.65368
 Alpha virt. eigenvalues --    2.66081   2.69111   2.73519   2.78965   2.83610
 Alpha virt. eigenvalues --    2.85630   2.91787   2.92162   2.95348   2.99791
 Alpha virt. eigenvalues --    3.02222   3.04999   3.06625   3.09205   3.15560
 Alpha virt. eigenvalues --    3.21183   3.24723   3.33572   3.45512   3.49321
 Alpha virt. eigenvalues --    3.52887   3.70027   4.37473   4.45513   4.45899
 Alpha virt. eigenvalues --    4.49288   4.54210   4.60894   4.66860   4.73525
 Alpha virt. eigenvalues --    4.76638   4.82896   4.89543   5.06447   5.85462
          Condensed to atoms (all electrons):
               1          2          3          4          5          6
     1  H    0.450254   0.385591  -0.018814  -0.018497  -0.028553   0.003706
     2  C    0.385591   5.263905   0.370962   0.372854   0.369642  -0.071649
     3  H   -0.018814   0.370962   0.522191  -0.024801  -0.033755   0.001351
     4  H   -0.018497   0.372854  -0.024801   0.514462  -0.034088   0.001255
     5  C   -0.028553   0.369642  -0.033755  -0.034088   4.186131   0.607348
     6  O    0.003706  -0.071649   0.001351   0.001255   0.607348   8.170178
     7  H    0.000000   0.000000   0.000000   0.000000   0.000000   0.000000
     8  H    0.000000   0.000000   0.000000   0.000000   0.000000   0.000000
     9  C    0.000000   0.000000   0.000000   0.000000  -0.000002   0.000000
    10  C    0.000000   0.000000   0.000000   0.000000   0.000010   0.000007
    11  Cl   0.000000   0.000000   0.000000   0.000000   0.000000   0.000000
    12  C    0.000000   0.000000   0.000000   0.000000   0.000004   0.000000
    13  C    0.000000   0.000004   0.000000  -0.000001   0.000873   0.000633
    14  F    0.000000   0.000001   0.000000   0.000000   0.000405  -0.000100
    15  C    0.000000  -0.000014   0.000000   0.000005  -0.000089  -0.000024
    16  C    0.000002  -0.000229  -0.000002   0.000047  -0.002211  -0.001084
    17  H    0.000000   0.000000   0.000000   0.000000  -0.000005   0.000000
    18  H    0.000000   0.000209  -0.000015  -0.000005   0.000279   0.005665
    19  C   -0.000064   0.004009  -0.000164  -0.000238  -0.014388   0.006229
    20  H    0.000001  -0.000012   0.000000  -0.000004   0.002549   0.000323
    21  N    0.003388  -0.117439   0.003785   0.003978   0.227528  -0.104236
    22  H   -0.000017  -0.000171   0.000698   0.000360  -0.019696   0.002493
               7          8          9         10         11         12
     1  H    0.000000   0.000000   0.000000   0.000000   0.000000   0.000000
     2  C    0.000000   0.000000   0.000000   0.000000   0.000000   0.000000
     3  H    0.000000   0.000000   0.000000   0.000000   0.000000   0.000000
     4  H    0.000000   0.000000   0.000000   0.000000   0.000000   0.000000
     5  C    0.000000   0.000000  -0.000002   0.000010   0.000000   0.000004
     6  O    0.000000   0.000000   0.000000   0.000007   0.000000   0.000000
     7  H    0.428009  -0.001655   0.381375  -0.023263   0.000901  -0.027759
     8  H   -0.001655   0.436541  -0.028041   0.376071  -0.000072   0.002260
     9  C    0.381375  -0.028041   4.963733   0.495315  -0.064357   0.526629
    10  C   -0.023263   0.376071   0.495315   5.050468   0.002462  -0.043408
    11  Cl   0.000901  -0.000072  -0.064357   0.002462  16.903303   0.207492
    12  C   -0.027759   0.002260   0.526629  -0.043408   0.207492   5.046471
    13  C    0.001080  -0.024861  -0.034519   0.539697   0.000218  -0.024287
    14  F   -0.000011  -0.000047   0.002275  -0.035646   0.000000  -0.000105
    15  C    0.002189  -0.000043  -0.050010  -0.030709  -0.066640   0.523816
    16  C    0.000103   0.003447  -0.021855  -0.072774   0.002589  -0.041485
    17  H   -0.000099   0.000007   0.002320   0.000028   0.001020  -0.026097
    18  H    0.000000   0.000000  -0.000015   0.000148   0.000001  -0.000035
    19  C    0.000003  -0.000080  -0.000134   0.003930  -0.000094   0.002216
    20  H    0.000000   0.000002  -0.000022  -0.000045  -0.000007   0.000249
    21  N    0.000000   0.000002   0.000013  -0.000090   0.000003   0.000011
    22  H    0.000000   0.000000  -0.000001  -0.000002   0.000000   0.000000
              13         14         15         16         17         18
     1  H    0.000000   0.000000   0.000000   0.000002   0.000000   0.000000
     2  C    0.000004   0.000001  -0.000014  -0.000229   0.000000   0.000209
     3  H    0.000000   0.000000   0.000000  -0.000002   0.000000  -0.000015
     4  H   -0.000001   0.000000   0.000005   0.000047   0.000000  -0.000005
     5  C    0.000873   0.000405  -0.000089  -0.002211  -0.000005   0.000279
     6  O    0.000633  -0.000100  -0.000024  -0.001084   0.000000   0.005665
     7  H    0.001080  -0.000011   0.002189   0.000103  -0.000099   0.000000
     8  H   -0.024861  -0.000047  -0.000043   0.003447   0.000007   0.000000
     9  C   -0.034519   0.002275  -0.050010  -0.021855   0.002320  -0.000015
    10  C    0.539697  -0.035646  -0.030709  -0.072774   0.000028   0.000148
    11  Cl   0.000218   0.000000  -0.066640   0.002589   0.001020   0.000001
    12  C   -0.024287  -0.000105   0.523816  -0.041485  -0.026097  -0.000035
    13  C    4.345805   0.269928  -0.024580   0.527490   0.001027  -0.003069
    14  F    0.269928   9.179503   0.002225  -0.043338  -0.000010   0.003458
    15  C   -0.024580   0.002225   4.995189   0.500309   0.383320   0.002702
    16  C    0.527490  -0.043338   0.500309   5.084068  -0.030831  -0.038636
    17  H    0.001027  -0.000010   0.383320  -0.030831   0.442467   0.000057
    18  H   -0.003069   0.003458   0.002702  -0.038636   0.000057   0.419159
    19  C   -0.033854   0.000664  -0.044294   0.309071  -0.002450   0.401913
    20  H    0.002430   0.000106  -0.003473  -0.063712   0.001282  -0.020851
    21  N   -0.000312  -0.000263   0.000159  -0.066249   0.000453  -0.028786
    22  H   -0.000006  -0.000007   0.001315   0.000991   0.000236   0.002168
              19         20         21         22
     1  H   -0.000064   0.000001   0.003388  -0.000017
     2  C    0.004009  -0.000012  -0.117439  -0.000171
     3  H   -0.000164   0.000000   0.003785   0.000698
     4  H   -0.000238  -0.000004   0.003978   0.000360
     5  C   -0.014388   0.002549   0.227528  -0.019696
     6  O    0.006229   0.000323  -0.104236   0.002493
     7  H    0.000003   0.000000   0.000000   0.000000
     8  H   -0.000080   0.000002   0.000002   0.000000
     9  C   -0.000134  -0.000022   0.000013  -0.000001
    10  C    0.003930  -0.000045  -0.000090  -0.000002
    11  Cl  -0.000094  -0.000007   0.000003   0.000000
    12  C    0.002216   0.000249   0.000011   0.000000
    13  C   -0.033854   0.002430  -0.000312  -0.000006
    14  F    0.000664   0.000106  -0.000263  -0.000007
    15  C   -0.044294  -0.003473   0.000159   0.001315
    16  C    0.309071  -0.063712  -0.066249   0.000991
    17  H   -0.002450   0.001282   0.000453   0.000236
    18  H    0.401913  -0.020851  -0.028786   0.002168
    19  C    4.930911   0.423562   0.187134  -0.024443
    20  H    0.423562   0.519605  -0.049327  -0.002694
    21  N    0.187134  -0.049327   7.397141   0.322234
    22  H   -0.024443  -0.002694   0.322234   0.333564
 Mulliken charges:
               1
     1  H    0.223005
     2  C   -0.577663
     3  H    0.178565
     4  H    0.184672
     5  C    0.738017
     6  O   -0.622094
     7  H    0.239127
     8  H    0.236469
     9  C   -0.172704
    10  C   -0.262197
    11  Cl   0.013182
    12  C   -0.145971
    13  C    0.456306
    14  F   -0.379037
    15  C   -0.191351
    16  C   -0.045710
    17  H    0.227277
    18  H    0.255652
    19  C   -0.149436
    20  H    0.190040
    21  N   -0.779128
    22  H    0.382979
 Sum of Mulliken charges =   0.00000
 Mulliken charges with hydrogens summed into heavy atoms:
               1
     2  C    0.008579
     5  C    0.738017
     6  O   -0.622094
     9  C    0.066422
    10  C   -0.025727
    11  Cl   0.013182
    12  C   -0.145971
    13  C    0.456306
    14  F   -0.379037
    15  C    0.035926
    16  C   -0.045710
    19  C    0.296256
    21  N   -0.396149
 DipInt: DoE/N= T F RetVal/Mat= T F Init=T NMatP=  1 IDeriv=0 Min/MaxMlt=  0  4
 Entering OneElI...
 OneElI was handed  2147360376 working-precision words.
 Multipole integrals L=0 to 4 MinM= 0 MaxM= 0.
 Requested accuracy = 0.1000D-12
 ShPair: Thresh= 1.00D-13 NBox=     0 BxSize= 0.00D+00 RnKept= 1.65D+01
         NSMCal=                 2556 NSMKep=                2202
 PrsmSu:  NPrtUS=   1 ThrOK=F IAlg=1 NPAlg=1 LenDen=           0.
 Prism:   IPart=     0 DynPar=F LinDyn=F Incr=          22.
 PRISM was handed  2147152423 working-precision words and  2202 shell-pairs
 IPart=  0 NShTot=        2202 NBatch=          55 AvBLen=        40.0
 PrSmSu:  NxtVal=             23.
 Electronic moments (au):
       -104.00000000         -0.68772381         -1.25531248         -0.04461093
      -2630.60013012       -716.46544985       -211.59650554        -13.19894250
          0.05360520         -1.98602444       -881.12815962       -776.96081835
        -35.17127132        155.84193590       3249.40996031       1459.79146478
       -372.82259324        126.62720582        276.52545260       -531.27530832
    -120516.93788334     -10817.03930557      -1701.83594354      -2446.89306709
       5375.52917623        688.81244383        -46.27584750        415.40234942
       -147.66165665     -16044.11181574      -5250.88044347      -1305.95936218
      -2936.29357851        420.93577919       1320.04971808
 Electronic spatial extent (au):  <R**2>=           3558.6621
 DipInt: DoE/N= F T RetVal/Mat= T F Init=T NMatP=  1 IDeriv=0 Min/MaxMlt=  0  4
 Nuclear    moments (au):
        104.00000000          0.00000000          0.00000000          0.00000000
       2560.36880243        658.84202080        152.20493050          0.00000000
          0.00000000          0.00000000        858.36218925        778.98947577
         39.59033822       -155.01166900      -3282.04516288      -1488.46426052
        389.11806715       -120.60352514       -281.17085441        545.01854175
     111036.59970107       8598.93144543        954.61708267       2049.66873454
      -5437.53593618       -709.12856314        -14.24152705       -407.11764210
        154.53288852      14210.26771842       3649.31622295        809.71360764
       2923.47723622       -385.42923442      -1299.88493301
 Total      moments (au):
          0.00000000         -0.68772381         -1.25531248         -0.04461093
        -70.23132768        -57.62342905        -59.39157504        -13.19894250
          0.05360520         -1.98602444        -22.76597037          2.02865742
          4.41906690          0.83026690        -32.63520257        -28.67279574
         16.29547392          6.02368068         -4.64540180         13.74323344
      -9480.33818227      -2218.10786014       -747.21886087       -397.22433255
        -62.00675995        -20.31611932        -60.51737455          8.28470732
          6.87123187      -1833.84409732      -1601.56422052       -496.24575454
        -12.81634229         35.50654477         20.16478507
 Traceless Quadrup. (au):
         -7.81588376          4.79201487          3.02386888        -13.19894250
          0.05360520         -1.98602444
 Charge=              0.0000 electrons
 Dipole moment (field-independent basis, Debye):
    X=             -1.7480    Y=             -3.1907    Z=             -0.1134  Tot=              3.6399
 Quadrupole moment (field-independent basis, Debye-Ang):
   XX=            -94.4635   YY=            -77.5055   ZZ=            -79.8837
   XY=            -17.7530   XZ=              0.0721   YZ=             -2.6713
 Traceless Quadrupole moment (field-independent basis, Debye-Ang):
   XX=            -10.5126   YY=              6.4454   ZZ=              4.0672
   XY=            -17.7530   XZ=              0.0721   YZ=             -2.6713
 Octapole moment (field-independent basis, Debye-Ang**2):
  XXX=            -16.2039  YYY=              1.4439  ZZZ=              3.1453  XYY=              0.5910
  XXY=            -23.2285  XXZ=            -20.4082  XZZ=             11.5985  YZZ=              4.2874
  YYZ=             -3.3064  XYZ=              9.7819
 Hexadecapole moment (field-independent basis, Debye-Ang**3):
 XXXX=          -3570.7497 YYYY=           -835.4457 ZZZZ=           -281.4384 XXXY=           -149.6137
 XXXZ=            -23.3547 YYYX=             -7.6520 YYYZ=            -22.7937 ZZZX=              3.1204
 ZZZY=              2.5880 XXYY=           -690.7136 XXZZ=           -603.2258 YYZZ=           -186.9099
 XXYZ=             -4.8272 YYXZ=             13.3735 ZZXY=              7.5950
 N-N= 8.402847647880D+02 E-N=-4.122580145435D+03  KE= 1.032485286363D+03
 Entering OneElI...
 OneElI was handed  2147383262 working-precision words.
 Calculate electrostatic properties
    NBasis =   217  MinDer = 0  MaxDer = 0
    NGrid  =    22  NMatD  =   1
 Requested accuracy = 0.1000D-12
 PrtBox:  NBox=     1 Levels=  1 BoxLen=   32.45 SMaxX=       16.26
          Shift=            7.070141            4.573078            3.615122
 Box      1 Number                   0 centers from      1 to     71:
 ShPair: Thresh= 1.00D-13 NBox=     1 BxSize= 3.24D+01 RnKept= 1.65D+01
         NSMCal=                 2556 NSMKep=                2006
 PrsmSu:  NPrtUS=   4 ThrOK=T IAlg=1 NPAlg=1 LenDen=           0.
 Prism:   IPart=     0 DynPar=F LinDyn=F Incr=         110.
 PRISM was handed   536748065 working-precision words and  2006 shell-pairs
 PRISM was handed   536748065 working-precision words and  2006 shell-pairs
 PRISM was handed   536748065 working-precision words and  2006 shell-pairs
 PRISM was handed   536748065 working-precision words and  2006 shell-pairs
 IPart=  2 NShTot=       10846 NBatch=         493 AvBLen=        22.0
 IPart=  0 NShTot=       11528 NBatch=         524 AvBLen=        22.0
 IPart=  3 NShTot=       10626 NBatch=         483 AvBLen=        22.0
 IPart=  1 NShTot=       11132 NBatch=         506 AvBLen=        22.0
 PrSmSu:  NxtVal=            441.
 --------------------------------------------------------
       Center         ----      EFG at Nuclei      ----
                      3XX-RR        3YY-RR        3ZZ-RR
 --------------------------------------------------------
     1   Atom       -0.157418      0.069313      0.088106
     2   Atom        0.016430      0.006895     -0.023324
     3   Atom        0.125617     -0.152167      0.026550
     4   Atom       -0.020858      0.123766     -0.102908
     5   Atom       -0.021454      0.258935     -0.237481
     6   Atom        0.629247     -0.795514      0.166266
     7   Atom       -0.192633      0.109302      0.083331
     8   Atom        0.144246     -0.238372      0.094125
     9   Atom        0.129312      0.085708     -0.215020
    10   Atom        0.085857      0.102759     -0.188616
    11   Atom       -1.335682     -0.450405      1.786087
    12   Atom       -0.054590      0.051210      0.003380
    13   Atom       -0.063002      0.061271      0.001731
    14   Atom       -0.970754     -0.428718      1.399472
    15   Atom        0.097973      0.097005     -0.194978
    16   Atom        0.108161      0.080052     -0.188213
    17   Atom        0.143850     -0.244187      0.100337
    18   Atom        0.044452     -0.124287      0.079835
    19   Atom       -0.052007      0.097902     -0.045894
    20   Atom        0.117601     -0.004133     -0.113469
    21   Atom       -0.090240     -0.437564      0.527804
    22   Atom        0.137529     -0.328322      0.190793
 --------------------------------------------------------
                        XY            XZ            YZ
 --------------------------------------------------------
     1   Atom       -0.157433      0.141183      0.069816
     2   Atom        0.058341      0.027471     -0.040479
     3   Atom        0.096118     -0.053614      0.195055
     4   Atom       -0.071653     -0.206045     -0.094625
     5   Atom        0.121883     -0.301319      0.264420
     6   Atom       -0.522002     -1.174782      0.294047
     7   Atom        0.110881     -0.171642      0.062761
     8   Atom        0.037322     -0.023907      0.172844
     9   Atom        0.056971      0.135485     -0.129434
    10   Atom        0.063271      0.111256     -0.125485
    11   Atom       -2.714364     -0.170425     -0.206343
    12   Atom       -0.249522      0.104524     -0.144586
    13   Atom       -0.323963      0.143744     -0.188448
    14   Atom       -2.258228     -0.129628     -0.219098
    15   Atom        0.066699      0.119832     -0.129499
    16   Atom        0.053080      0.107720     -0.106479
    17   Atom        0.037747     -0.024466      0.170871
    18   Atom       -0.149826     -0.079683     -0.138893
    19   Atom        0.200893      0.116555     -0.099142
    20   Atom       -0.064036      0.096140      0.202958
    21   Atom       -0.167183      0.672247     -0.354970
    22   Atom       -0.133201      0.019393     -0.088268
 --------------------------------------------------------


 ---------------------------------------------------------------------------------
              Nuclear Quadrupole Coupling Constant in Principal Axis System
 ---------------------------------------------------------------------------------

       Atom             a.u.   MegaHertz   Gauss  10(-4) cm-1        Axes

              Baa    -3.6560   -70.140   -25.028   -23.396  0.7607  0.6473  0.0484
    11 Cl(35) Bbb     1.7729    34.013    12.137    11.345 -0.3466  0.3422  0.8734
              Bcc     1.8831    36.128    12.891    12.051 -0.5487  0.6812 -0.4847
 
              Baa    -0.5798     2.785     0.994     0.929 -0.4393  0.7431  0.5048
    21 N(14)  Bbb    -0.4800     2.305     0.823     0.769  0.7358  0.6200 -0.2724
              Bcc     1.0599    -5.090    -1.816    -1.698  0.5154 -0.2517  0.8191
 

 ---------------------------------------------------------------------------------

 No NMR shielding tensors so no spin-rotation constants.
 Leave Link  601 at Wed Nov 29 20:22:00 2017, MaxMem=  2147483648 cpu:         0.4
 FitSet:  NAtFit=    22 NAtPot=    22 NAtFrz=     0 MDM=    26 TotChg=   0.00000
 Merz-Kollman atomic radii used.
 Atom Element Radius
    1     1    1.20
    2     6    1.50
    3     1    1.20
    4     1    1.20
    5     6    1.50
    6     8    1.40
    7     1    1.20
    8     1    1.20
    9     6    1.50
   10     6    1.50
   11    17    1.70
   12     6    1.50
   13     6    1.50
   14     9    1.35
   15     6    1.50
   16     6    1.50
   17     1    1.20
   18     1    1.20
   19     6    1.50
   20     1    1.20
   21     7    1.50
   22     1    1.20
 Generate VDW surfaces: Layer= 4 Dens= 6 Start= 1.400 Inc= 0.200

 **********************************************************************

            Electrostatic Properties Using The SCF Density

 **********************************************************************

       Atomic Center    1 is at   4.862550 -1.072634 -1.505464
       Atomic Center    2 is at   3.963017 -1.533119 -1.097867
       Atomic Center    3 is at   4.235679 -2.419968 -0.526071
       Atomic Center    4 is at   3.297825 -1.817162 -1.913040
       Atomic Center    5 is at   3.210595 -0.553855 -0.163307
       Atomic Center    6 is at   3.659732  0.576830  0.024940
       Atomic Center    7 is at  -3.487287  1.333729 -1.055687
       Atomic Center    8 is at  -1.561563  2.906297 -0.990946
       Atomic Center    9 is at  -2.554411  1.025157 -0.604068
       Atomic Center   10 is at  -1.463003  1.916268 -0.568404
       Atomic Center   11 is at  -3.741357 -1.379257 -0.135125
       Atomic Center   12 is at  -2.423901 -0.265448 -0.058406
       Atomic Center   13 is at  -0.247311  1.526868  0.029606
       Atomic Center   14 is at   0.772212  2.414411  0.101446
       Atomic Center   15 is at  -1.203225 -0.658865  0.527771
       Atomic Center   16 is at  -0.108662  0.230868  0.576894
       Atomic Center   17 is at  -1.109570 -1.653442  0.935171
       Atomic Center   18 is at   1.695049  0.662148  1.682317
       Atomic Center   19 is at   1.185069 -0.203114  1.252571
       Atomic Center   20 is at   0.898532 -0.835676  2.088411
       Atomic Center   21 is at   2.079546 -0.991246  0.405990
       Atomic Center   22 is at   1.838268 -1.970098  0.259226
      ESP Fit Center   23 is at   5.590011 -0.652634 -0.050541
      ESP Fit Center   24 is at   6.050489 -1.072634 -0.317524
      ESP Fit Center   25 is at   5.970270 -0.643500 -0.317524
      ESP Fit Center   26 is at   5.740448 -0.272324 -0.317524
      ESP Fit Center   27 is at   5.970270 -1.501767 -0.317524
      ESP Fit Center   28 is at   6.317473 -1.072634 -0.665464
      ESP Fit Center   29 is at   6.252835 -0.643788 -0.665464
      ESP Fit Center   30 is at   6.064664 -0.253047 -0.665464
      ESP Fit Center   31 is at   5.769679  0.064871 -0.665464
      ESP Fit Center   32 is at   6.064664 -1.892221 -0.665464
      ESP Fit Center   33 is at   6.252835 -1.501480 -0.665464
      ESP Fit Center   34 is at   6.485305 -1.072634 -1.070648
      ESP Fit Center   35 is at   6.430011 -0.652634 -1.070648
      ESP Fit Center   36 is at   6.267897 -0.261256 -1.070648
      ESP Fit Center   37 is at   6.010011  0.074828 -1.070648
      ESP Fit Center   38 is at   5.673928  0.332714 -1.070648
      ESP Fit Center   39 is at   6.010011 -2.220095 -1.070648
      ESP Fit Center   40 is at   6.267897 -1.884011 -1.070648
      ESP Fit Center   41 is at   6.430011 -1.492634 -1.070648
      ESP Fit Center   42 is at   6.542550 -1.072634 -1.505464
      ESP Fit Center   43 is at   6.489770 -0.654835 -1.505464
      ESP Fit Center   44 is at   6.334745 -0.263287 -1.505464
      ESP Fit Center   45 is at   6.087217  0.077406 -1.505464
      ESP Fit Center   46 is at   5.762739  0.345837 -1.505464
      ESP Fit Center   47 is at   5.381699  0.525141 -1.505464
      ESP Fit Center   48 is at   4.968038  0.604051 -1.505464
      ESP Fit Center   49 is at   6.087217 -2.222673 -1.505464
      ESP Fit Center   50 is at   6.334745 -1.881980 -1.505464
      ESP Fit Center   51 is at   6.489770 -1.490433 -1.505464
      ESP Fit Center   52 is at   6.485305 -1.072634 -1.940280
      ESP Fit Center   53 is at   6.430011 -0.652634 -1.940280
      ESP Fit Center   54 is at   6.267897 -0.261256 -1.940280
      ESP Fit Center   55 is at   6.010011  0.074828 -1.940280
      ESP Fit Center   56 is at   5.673928  0.332714 -1.940280
      ESP Fit Center   57 is at   5.282550  0.494828 -1.940280
      ESP Fit Center   58 is at   4.862550  0.550122 -1.940280
      ESP Fit Center   59 is at   4.442550  0.494828 -1.940280
      ESP Fit Center   60 is at   5.673928 -2.477981 -1.940280
      ESP Fit Center   61 is at   6.010011 -2.220095 -1.940280
      ESP Fit Center   62 is at   6.267897 -1.884011 -1.940280
      ESP Fit Center   63 is at   6.430011 -1.492634 -1.940280
      ESP Fit Center   64 is at   6.317473 -1.072634 -2.345464
      ESP Fit Center   65 is at   6.252835 -0.643788 -2.345464
      ESP Fit Center   66 is at   6.064664 -0.253047 -2.345464
      ESP Fit Center   67 is at   5.769679  0.064871 -2.345464
      ESP Fit Center   68 is at   5.394093  0.281716 -2.345464
      ESP Fit Center   69 is at   4.971277  0.378221 -2.345464
      ESP Fit Center   70 is at   4.538799  0.345811 -2.345464
      ESP Fit Center   71 is at   4.135089  0.187366 -2.345464
      ESP Fit Center   72 is at   5.769679 -2.210138 -2.345464
      ESP Fit Center   73 is at   6.064664 -1.892221 -2.345464
      ESP Fit Center   74 is at   6.252835 -1.501480 -2.345464
      ESP Fit Center   75 is at   6.050489 -1.072634 -2.693403
      ESP Fit Center   76 is at   5.970270 -0.643500 -2.693403
      ESP Fit Center   77 is at   5.740448 -0.272324 -2.693403
      ESP Fit Center   78 is at   5.392060 -0.009234 -2.693403
      ESP Fit Center   79 is at   4.972159  0.110238 -2.693403
      ESP Fit Center   80 is at   4.537455  0.069957 -2.693403
      ESP Fit Center   81 is at   4.146657 -0.124638 -2.693403
      ESP Fit Center   82 is at   5.392060 -2.136033 -2.693403
      ESP Fit Center   83 is at   5.740448 -1.872943 -2.693403
      ESP Fit Center   84 is at   5.970270 -1.501767 -2.693403
      ESP Fit Center   85 is at   5.702550 -1.072634 -2.960387
      ESP Fit Center   86 is at   5.590011 -0.652634 -2.960387
      ESP Fit Center   87 is at   5.282550 -0.345172 -2.960387
      ESP Fit Center   88 is at   4.862550 -0.232634 -2.960387
      ESP Fit Center   89 is at   4.442550 -0.345172 -2.960387
      ESP Fit Center   90 is at   4.862550 -1.912634 -2.960387
      ESP Fit Center   91 is at   5.282550 -1.800095 -2.960387
      ESP Fit Center   92 is at   5.590011 -1.492634 -2.960387
      ESP Fit Center   93 is at   5.297366 -1.072634 -3.128219
      ESP Fit Center   94 is at   5.079958 -0.696072 -3.128219
      ESP Fit Center   95 is at   4.645142 -0.696072 -3.128219
      ESP Fit Center   96 is at   4.427734 -1.072634 -3.128219
      ESP Fit Center   97 is at   4.645142 -1.449195 -3.128219
      ESP Fit Center   98 is at   5.079958 -1.449195 -3.128219
      ESP Fit Center   99 is at   4.862550 -1.072634 -3.185464
      ESP Fit Center  100 is at   5.129715 -1.533119  0.648219
      ESP Fit Center  101 is at   5.447942 -1.533119  0.387057
      ESP Fit Center  102 is at   5.387792 -1.114768  0.387057
      ESP Fit Center  103 is at   5.709104 -1.533119  0.068831
      ESP Fit Center  104 is at   5.658366 -1.115253  0.068831
      ESP Fit Center  105 is at   5.509100 -0.721673  0.068831
      ESP Fit Center  106 is at   5.857805 -1.950194 -0.294232
      ESP Fit Center  107 is at   2.702294 -3.161840 -0.688177
      ESP Fit Center  108 is at   2.796320 -3.279205 -1.097867
      ESP Fit Center  109 is at   5.903165 -2.336754 -1.097867
      ESP Fit Center  110 is at   5.653502 -2.709731 -1.507557
      ESP Fit Center  111 is at   4.068055  0.404182 -1.901502
      ESP Fit Center  112 is at   4.068055 -3.470421 -1.901502
      ESP Fit Center  113 is at   4.482062 -3.402548 -1.901502
      ESP Fit Center  114 is at   4.871799 -3.247263 -1.901502
      ESP Fit Center  115 is at   5.219042 -3.011826 -1.901502
      ESP Fit Center  116 is at   5.507555 -2.707246 -1.901502
      ESP Fit Center  117 is at   3.752550  0.200236 -2.264564
      ESP Fit Center  118 is at   3.343847  0.099500 -2.264564
      ESP Fit Center  119 is at   2.971127 -0.096118 -2.264564
      ESP Fit Center  120 is at   4.173485 -3.266475 -2.264564
      ESP Fit Center  121 is at   4.582188 -3.165738 -2.264564
      ESP Fit Center  122 is at   4.954907 -2.970120 -2.264564
      ESP Fit Center  123 is at   5.269982 -2.690989 -2.264564
      ESP Fit Center  124 is at   3.751691 -0.063309 -2.582791
      ESP Fit Center  125 is at   3.346158 -0.182385 -2.582791
      ESP Fit Center  126 is at   4.579877 -2.883854 -2.582791
      ESP Fit Center  127 is at   4.935436 -2.655350 -2.582791
      ESP Fit Center  128 is at   5.212215 -2.335930 -2.582791
      ESP Fit Center  129 is at   4.070667 -0.371399 -2.843953
      ESP Fit Center  130 is at   3.643736 -0.410960 -2.843953
      ESP Fit Center  131 is at   4.483059 -2.577504 -2.843953
      ESP Fit Center  132 is at   4.825217 -2.319118 -2.843953
      ESP Fit Center  133 is at   3.963017 -0.729484 -3.038014
      ESP Fit Center  134 is at   4.658986 -1.934937 -3.038014
      ESP Fit Center  135 is at   4.235679 -2.419968  1.153929
      ESP Fit Center  136 is at   4.670495 -2.419968  1.096684
      ESP Fit Center  137 is at   4.453087 -2.043407  1.096684
      ESP Fit Center  138 is at   4.018271 -2.043407  1.096684
      ESP Fit Center  139 is at   3.800863 -2.419968  1.096684
      ESP Fit Center  140 is at   4.018271 -2.796530  1.096684
      ESP Fit Center  141 is at   4.453087 -2.796530  1.096684
      ESP Fit Center  142 is at   5.075679 -2.419968  0.928852
      ESP Fit Center  143 is at   4.963140 -1.999968  0.928852
      ESP Fit Center  144 is at   4.655679 -1.692507  0.928852
      ESP Fit Center  145 is at   3.508217 -2.839968  0.928852
      ESP Fit Center  146 is at   3.815679 -3.147430  0.928852
      ESP Fit Center  147 is at   4.235679 -3.259968  0.928852
      ESP Fit Center  148 is at   4.655679 -3.147430  0.928852
      ESP Fit Center  149 is at   4.963140 -2.839968  0.928852
      ESP Fit Center  150 is at   5.423618 -2.419968  0.661868
      ESP Fit Center  151 is at   5.343399 -1.990835  0.661868
      ESP Fit Center  152 is at   5.113576 -1.619659  0.661868
      ESP Fit Center  153 is at   3.225672 -3.045338  0.661868
      ESP Fit Center  154 is at   3.519785 -3.367964  0.661868
      ESP Fit Center  155 is at   3.910584 -3.562559  0.661868
      ESP Fit Center  156 is at   4.345288 -3.602840  0.661868
      ESP Fit Center  157 is at   4.765189 -3.483368  0.661868
      ESP Fit Center  158 is at   5.113576 -3.220278  0.661868
      ESP Fit Center  159 is at   5.343399 -2.849102  0.661868
      ESP Fit Center  160 is at   5.690601 -2.419968  0.313929
      ESP Fit Center  161 is at   5.625963 -1.991122  0.313929
      ESP Fit Center  162 is at   3.169145 -3.409567  0.313929
      ESP Fit Center  163 is at   3.508217 -3.679968  0.313929
      ESP Fit Center  164 is at   3.911928 -3.838413  0.313929
      ESP Fit Center  165 is at   4.344405 -3.870823  0.313929
      ESP Fit Center  166 is at   4.767222 -3.774318  0.313929
      ESP Fit Center  167 is at   5.142808 -3.557473  0.313929
      ESP Fit Center  168 is at   5.437792 -3.239556  0.313929
      ESP Fit Center  169 is at   5.625963 -2.848814  0.313929
      ESP Fit Center  170 is at   5.858434 -2.419968 -0.091255
      ESP Fit Center  171 is at   5.803140 -1.999968 -0.091255
      ESP Fit Center  172 is at   3.088217 -3.567430 -0.091255
      ESP Fit Center  173 is at   3.424301 -3.825316 -0.091255
      ESP Fit Center  174 is at   3.815679 -3.987430 -0.091255
      ESP Fit Center  175 is at   4.235679 -4.042724 -0.091255
      ESP Fit Center  176 is at   4.655679 -3.987430 -0.091255
      ESP Fit Center  177 is at   5.047056 -3.825316 -0.091255
      ESP Fit Center  178 is at   5.383140 -3.567430 -0.091255
      ESP Fit Center  179 is at   5.641026 -3.231346 -0.091255
      ESP Fit Center  180 is at   5.803140 -2.839968 -0.091255
      ESP Fit Center  181 is at   5.915679 -2.419968 -0.526071
      ESP Fit Center  182 is at   2.876530 -3.407448 -0.526071
      ESP Fit Center  183 is at   3.164806 -3.714431 -0.526071
      ESP Fit Center  184 is at   3.520369 -3.940078 -0.526071
      ESP Fit Center  185 is at   3.920878 -4.070211 -0.526071
      ESP Fit Center  186 is at   4.341167 -4.096653 -0.526071
      ESP Fit Center  187 is at   4.754827 -4.017743 -0.526071
      ESP Fit Center  188 is at   5.135868 -3.838439 -0.526071
      ESP Fit Center  189 is at   5.460346 -3.570008 -0.526071
      ESP Fit Center  190 is at   5.707874 -3.229315 -0.526071
      ESP Fit Center  191 is at   5.862898 -2.837767 -0.526071
      ESP Fit Center  192 is at   3.088217 -3.567430 -0.960887
      ESP Fit Center  193 is at   3.424301 -3.825316 -0.960887
      ESP Fit Center  194 is at   3.815679 -3.987430 -0.960887
      ESP Fit Center  195 is at   4.235679 -4.042724 -0.960887
      ESP Fit Center  196 is at   4.655679 -3.987430 -0.960887
      ESP Fit Center  197 is at   5.047056 -3.825316 -0.960887
      ESP Fit Center  198 is at   5.383140 -3.567430 -0.960887
      ESP Fit Center  199 is at   5.641026 -3.231346 -0.960887
      ESP Fit Center  200 is at   5.803140 -2.839968 -0.960887
      ESP Fit Center  201 is at   3.508217 -3.679968 -1.366071
      ESP Fit Center  202 is at   3.911928 -3.838413 -1.366071
      ESP Fit Center  203 is at   4.344405 -3.870823 -1.366071
      ESP Fit Center  204 is at   4.767222 -3.774318 -1.366071
      ESP Fit Center  205 is at   5.142808 -3.557473 -1.366071
      ESP Fit Center  206 is at   5.437792 -3.239556 -1.366071
      ESP Fit Center  207 is at   5.625963 -2.848814 -1.366071
      ESP Fit Center  208 is at   3.910584 -3.562559 -1.714010
      ESP Fit Center  209 is at   4.345288 -3.602840 -1.714010
      ESP Fit Center  210 is at   4.765189 -3.483368 -1.714010
      ESP Fit Center  211 is at   5.113576 -3.220278 -1.714010
      ESP Fit Center  212 is at   1.730363 -2.237162 -1.478224
      ESP Fit Center  213 is at   1.892477 -2.628539 -1.478224
      ESP Fit Center  214 is at   2.150363 -2.964623 -1.478224
      ESP Fit Center  215 is at   2.486447 -3.222509 -1.478224
      ESP Fit Center  216 is at   2.877825 -3.384623 -1.478224
      ESP Fit Center  217 is at   1.938676 -0.829683 -1.913040
      ESP Fit Center  218 is at   1.735800 -1.198713 -1.913040
      ESP Fit Center  219 is at   1.631072 -1.606602 -1.913040
      ESP Fit Center  220 is at   1.631072 -2.027722 -1.913040
      ESP Fit Center  221 is at   1.735800 -2.435611 -1.913040
      ESP Fit Center  222 is at   1.938676 -2.804641 -1.913040
      ESP Fit Center  223 is at   2.226952 -3.111624 -1.913040
      ESP Fit Center  224 is at   2.582515 -3.337271 -1.913040
      ESP Fit Center  225 is at   2.983024 -3.467404 -1.913040
      ESP Fit Center  226 is at   3.403313 -3.493847 -1.913040
      ESP Fit Center  227 is at   2.486447 -0.411814 -2.347856
      ESP Fit Center  228 is at   2.150363 -0.669700 -2.347856
      ESP Fit Center  229 is at   1.892477 -1.005784 -2.347856
      ESP Fit Center  230 is at   1.730363 -1.397162 -2.347856
      ESP Fit Center  231 is at   1.675069 -1.817162 -2.347856
      ESP Fit Center  232 is at   1.730363 -2.237162 -2.347856
      ESP Fit Center  233 is at   1.892477 -2.628539 -2.347856
      ESP Fit Center  234 is at   2.150363 -2.964623 -2.347856
      ESP Fit Center  235 is at   2.486447 -3.222509 -2.347856
      ESP Fit Center  236 is at   2.877825 -3.384623 -2.347856
      ESP Fit Center  237 is at   3.297825 -3.439917 -2.347856
      ESP Fit Center  238 is at   3.717825 -3.384623 -2.347856
      ESP Fit Center  239 is at   4.109202 -3.222509 -2.347856
      ESP Fit Center  240 is at   3.406551 -0.366307 -2.753040
      ESP Fit Center  241 is at   2.974074 -0.398717 -2.753040
      ESP Fit Center  242 is at   2.570363 -0.557162 -2.753040
      ESP Fit Center  243 is at   2.231291 -0.827563 -2.753040
      ESP Fit Center  244 is at   1.986985 -1.185894 -2.753040
      ESP Fit Center  245 is at   1.859152 -1.600317 -2.753040
      ESP Fit Center  246 is at   1.859152 -2.034007 -2.753040
      ESP Fit Center  247 is at   1.986985 -2.448429 -2.753040
      ESP Fit Center  248 is at   2.231291 -2.806761 -2.753040
      ESP Fit Center  249 is at   2.570363 -3.077162 -2.753040
      ESP Fit Center  250 is at   2.974074 -3.235607 -2.753040
      ESP Fit Center  251 is at   3.406551 -3.268016 -2.753040
      ESP Fit Center  252 is at   3.829368 -3.171511 -2.753040
      ESP Fit Center  253 is at   4.204954 -2.954666 -2.753040
      ESP Fit Center  254 is at   3.827335 -0.753762 -3.100980
      ESP Fit Center  255 is at   3.407434 -0.634290 -3.100980
      ESP Fit Center  256 is at   2.972730 -0.674571 -3.100980
      ESP Fit Center  257 is at   2.581931 -0.869166 -3.100980
      ESP Fit Center  258 is at   2.287818 -1.191792 -3.100980
      ESP Fit Center  259 is at   2.130112 -1.598878 -3.100980
      ESP Fit Center  260 is at   2.130112 -2.035445 -3.100980
      ESP Fit Center  261 is at   2.287818 -2.442531 -3.100980
      ESP Fit Center  262 is at   2.581931 -2.765158 -3.100980
      ESP Fit Center  263 is at   2.972730 -2.959752 -3.100980
      ESP Fit Center  264 is at   3.407434 -3.000034 -3.100980
      ESP Fit Center  265 is at   3.827335 -2.880562 -3.100980
      ESP Fit Center  266 is at   4.175722 -2.617471 -3.100980
      ESP Fit Center  267 is at   4.405545 -2.246295 -3.100980
      ESP Fit Center  268 is at   4.137825 -1.817162 -3.367963
      ESP Fit Center  269 is at   4.025286 -1.397162 -3.367963
      ESP Fit Center  270 is at   3.717825 -1.089700 -3.367963
      ESP Fit Center  271 is at   3.297825 -0.977162 -3.367963
      ESP Fit Center  272 is at   2.877825 -1.089700 -3.367963
      ESP Fit Center  273 is at   2.570363 -1.397162 -3.367963
      ESP Fit Center  274 is at   2.457825 -1.817162 -3.367963
      ESP Fit Center  275 is at   2.570363 -2.237162 -3.367963
      ESP Fit Center  276 is at   2.877825 -2.544623 -3.367963
      ESP Fit Center  277 is at   3.297825 -2.657162 -3.367963
      ESP Fit Center  278 is at   3.717825 -2.544623 -3.367963
      ESP Fit Center  279 is at   4.025286 -2.237162 -3.367963
      ESP Fit Center  280 is at   3.732641 -1.817162 -3.535796
      ESP Fit Center  281 is at   3.515233 -1.440600 -3.535796
      ESP Fit Center  282 is at   3.080417 -1.440600 -3.535796
      ESP Fit Center  283 is at   2.863009 -1.817162 -3.535796
      ESP Fit Center  284 is at   3.080417 -2.193723 -3.535796
      ESP Fit Center  285 is at   3.515233 -2.193723 -3.535796
      ESP Fit Center  286 is at   3.297825 -1.817162 -3.593040
      ESP Fit Center  287 is at   3.620285 -0.553855  1.896342
      ESP Fit Center  288 is at   3.415440 -0.199054  1.896342
      ESP Fit Center  289 is at   4.014231 -0.553855  1.776840
      ESP Fit Center  290 is at   3.906564 -0.955673  1.776840
      ESP Fit Center  291 is at   4.377293 -0.553855  1.582779
      ESP Fit Center  292 is at   3.730637 -1.598240  1.582779
      ESP Fit Center  293 is at   4.072795 -1.339854  1.582779
      ESP Fit Center  294 is at   4.298508 -0.975315  1.582779
      ESP Fit Center  295 is at   4.695520 -0.553855  1.321617
      ESP Fit Center  296 is at   3.827455 -1.904590  1.321617
      ESP Fit Center  297 is at   4.183014 -1.676086  1.321617
      ESP Fit Center  298 is at   4.459793 -1.356666  1.321617
      ESP Fit Center  299 is at   4.635370 -0.972207  1.321617
      ESP Fit Center  300 is at   4.956682 -0.553855  1.003391
      ESP Fit Center  301 is at   4.517560 -1.711725  1.003391
      ESP Fit Center  302 is at   4.756678 -1.365302  1.003391
      ESP Fit Center  303 is at   4.905943 -0.971721  1.003391
      ESP Fit Center  304 is at   5.150742 -0.553855  0.640328
      ESP Fit Center  305 is at   5.105383 -0.970930  0.640328
      ESP Fit Center  306 is at   5.270244 -0.553855  0.246383
      ESP Fit Center  307 is at   1.802057  0.780383 -0.966942
      ESP Fit Center  308 is at   2.218705  0.883145 -1.330004
      ESP Fit Center  309 is at   1.903631  0.604014 -1.330004
      ESP Fit Center  310 is at   1.664513  0.257591 -1.330004
      ESP Fit Center  311 is at   2.593736  0.796879 -1.648231
      ESP Fit Center  312 is at   2.238177  0.568375 -1.648231
      ESP Fit Center  313 is at   1.961398  0.248955 -1.648231
      ESP Fit Center  314 is at   1.785821 -0.135504 -1.648231
      ESP Fit Center  315 is at   1.725671 -0.553855 -1.648231
      ESP Fit Center  316 is at   3.318245  0.607865 -1.909393
      ESP Fit Center  317 is at   2.891313  0.568304 -1.909393
      ESP Fit Center  318 is at   2.507503  0.377189 -1.909393
      ESP Fit Center  319 is at   2.218649  0.060332 -1.909393
      ESP Fit Center  320 is at   2.063763 -0.339475 -1.909393
      ESP Fit Center  321 is at   3.210595  0.249780 -2.103454
      ESP Fit Center  322 is at   2.808778  0.142113 -2.103454
      ESP Fit Center  323 is at   2.514627 -0.152038 -2.103454
      ESP Fit Center  324 is at   3.659732  0.576830  1.984940
      ESP Fit Center  325 is at   4.067239  0.576830  1.942110
      ESP Fit Center  326 is at   3.863485  0.929741  1.942110
      ESP Fit Center  327 is at   3.455978  0.929741  1.942110
      ESP Fit Center  328 is at   3.455978  0.223918  1.942110
      ESP Fit Center  329 is at   3.863485  0.223918  1.942110
      ESP Fit Center  330 is at   4.456936  0.576830  1.815489
      ESP Fit Center  331 is at   4.350131  0.975431  1.815489
      ESP Fit Center  332 is at   4.058334  1.267228  1.815489
      ESP Fit Center  333 is at   3.659732  1.374033  1.815489
      ESP Fit Center  334 is at   3.261130  1.267228  1.815489
      ESP Fit Center  335 is at   4.058334 -0.113569  1.815489
      ESP Fit Center  336 is at   4.350131  0.178228  1.815489
      ESP Fit Center  337 is at   4.811791  0.576830  1.610614
      ESP Fit Center  338 is at   4.733995  0.993001  1.610614
      ESP Fit Center  339 is at   4.511114  1.352967  1.610614
      ESP Fit Center  340 is at   4.173249  1.608111  1.610614
      ESP Fit Center  341 is at   3.766030  1.723974  1.610614
      ESP Fit Center  342 is at   3.344456  1.684910  1.610614
      ESP Fit Center  343 is at   4.511114 -0.199308  1.610614
      ESP Fit Center  344 is at   4.733995  0.160658  1.610614
      ESP Fit Center  345 is at   5.116296  0.576830  1.336436
      ESP Fit Center  346 is at   5.057295  0.987191  1.336436
      ESP Fit Center  347 is at   4.885071  1.364307  1.336436
      ESP Fit Center  348 is at   4.613578  1.677627  1.336436
      ESP Fit Center  349 is at   4.264810  1.901767  1.336436
      ESP Fit Center  350 is at   3.867022  2.018568  1.336436
      ESP Fit Center  351 is at   3.452441  2.018568  1.336436
      ESP Fit Center  352 is at   3.054653  1.901767  1.336436
      ESP Fit Center  353 is at   4.885071 -0.210648  1.336436
      ESP Fit Center  354 is at   5.057295  0.166468  1.336436
      ESP Fit Center  355 is at   5.357142  0.576830  1.004940
      ESP Fit Center  356 is at   5.303814  0.998958  1.004940
      ESP Fit Center  357 is at   5.147183  1.394563  1.004940
      ESP Fit Center  358 is at   4.897090  1.738786  1.004940
      ESP Fit Center  359 is at   4.569249  2.010000  1.004940
      ESP Fit Center  360 is at   4.184260  2.191162  1.004940
      ESP Fit Center  361 is at   3.766313  2.270890  1.004940
      ESP Fit Center  362 is at   3.341669  2.244174  1.004940
      ESP Fit Center  363 is at   2.937010  2.112692  1.004940
      ESP Fit Center  364 is at   5.147183 -0.240904  1.004940
      ESP Fit Center  365 is at   5.303814  0.154701  1.004940
      ESP Fit Center  366 is at   5.523803  0.576830  0.630614
      ESP Fit Center  367 is at   5.477066  0.991624  0.630614
      ESP Fit Center  368 is at   5.339202  1.385620  0.630614
      ESP Fit Center  369 is at   5.117121  1.739059  0.630614
      ESP Fit Center  370 is at   4.821961  2.034219  0.630614
      ESP Fit Center  371 is at   4.468522  2.256299  0.630614
      ESP Fit Center  372 is at   4.074527  2.394164  0.630614
      ESP Fit Center  373 is at   3.659732  2.440900  0.630614
      ESP Fit Center  374 is at   3.244937  2.394164  0.630614
      ESP Fit Center  375 is at   2.850942  2.256299  0.630614
      ESP Fit Center  376 is at   5.339202 -0.231960  0.630614
      ESP Fit Center  377 is at   5.477066  0.162035  0.630614
      ESP Fit Center  378 is at   5.608995  0.576830  0.229816
      ESP Fit Center  379 is at   5.563422  0.995863  0.229816
      ESP Fit Center  380 is at   5.428835  1.395304  0.229816
      ESP Fit Center  381 is at   5.211526  1.756473  0.229816
      ESP Fit Center  382 is at   4.921658  2.062484  0.229816
      ESP Fit Center  383 is at   4.572783  2.299027  0.229816
      ESP Fit Center  384 is at   4.181215  2.455042  0.229816
      ESP Fit Center  385 is at   3.765263  2.523234  0.229816
      ESP Fit Center  386 is at   3.344376  2.500414  0.229816
      ESP Fit Center  387 is at   2.938235  2.387649  0.229816
      ESP Fit Center  388 is at   5.428835 -0.241645  0.229816
      ESP Fit Center  389 is at   5.563422  0.157796  0.229816
      ESP Fit Center  390 is at   5.608995  0.576830 -0.179936
      ESP Fit Center  391 is at   5.563422  0.995863 -0.179936
      ESP Fit Center  392 is at   5.428835  1.395304 -0.179936
      ESP Fit Center  393 is at   5.211526  1.756473 -0.179936
      ESP Fit Center  394 is at   4.921658  2.062484 -0.179936
      ESP Fit Center  395 is at   4.572783  2.299027 -0.179936
      ESP Fit Center  396 is at   4.181215  2.455042 -0.179936
      ESP Fit Center  397 is at   3.765263  2.523234 -0.179936
      ESP Fit Center  398 is at   3.344376  2.500414 -0.179936
      ESP Fit Center  399 is at   2.938235  2.387649 -0.179936
      ESP Fit Center  400 is at   5.563422  0.157796 -0.179936
      ESP Fit Center  401 is at   5.523803  0.576830 -0.580733
      ESP Fit Center  402 is at   5.477066  0.991624 -0.580733
      ESP Fit Center  403 is at   5.339202  1.385620 -0.580733
      ESP Fit Center  404 is at   5.117121  1.739059 -0.580733
      ESP Fit Center  405 is at   4.821961  2.034219 -0.580733
      ESP Fit Center  406 is at   4.468522  2.256299 -0.580733
      ESP Fit Center  407 is at   4.074527  2.394164 -0.580733
      ESP Fit Center  408 is at   3.659732  2.440900 -0.580733
      ESP Fit Center  409 is at   3.244937  2.394164 -0.580733
      ESP Fit Center  410 is at   2.850942  2.256299 -0.580733
      ESP Fit Center  411 is at   2.497503  2.034219 -0.580733
      ESP Fit Center  412 is at   1.842397  0.991624 -0.580733
      ESP Fit Center  413 is at   5.357142  0.576830 -0.955060
      ESP Fit Center  414 is at   5.303814  0.998958 -0.955060
      ESP Fit Center  415 is at   5.147183  1.394563 -0.955060
      ESP Fit Center  416 is at   4.897090  1.738786 -0.955060
      ESP Fit Center  417 is at   4.569249  2.010000 -0.955060
      ESP Fit Center  418 is at   4.184260  2.191162 -0.955060
      ESP Fit Center  419 is at   3.766313  2.270890 -0.955060
      ESP Fit Center  420 is at   3.341669  2.244174 -0.955060
      ESP Fit Center  421 is at   2.937010  2.112692 -0.955060
      ESP Fit Center  422 is at   2.577762  1.884706 -0.955060
      ESP Fit Center  423 is at   2.286498  1.574542 -0.955060
      ESP Fit Center  424 is at   2.081520  1.201688 -0.955060
      ESP Fit Center  425 is at   5.116296  0.576830 -1.286556
      ESP Fit Center  426 is at   5.057295  0.987191 -1.286556
      ESP Fit Center  427 is at   4.885071  1.364307 -1.286556
      ESP Fit Center  428 is at   4.613578  1.677627 -1.286556
      ESP Fit Center  429 is at   4.264810  1.901767 -1.286556
      ESP Fit Center  430 is at   3.867022  2.018568 -1.286556
      ESP Fit Center  431 is at   3.452441  2.018568 -1.286556
      ESP Fit Center  432 is at   3.054653  1.901767 -1.286556
      ESP Fit Center  433 is at   2.705885  1.677627 -1.286556
      ESP Fit Center  434 is at   2.434392  1.364307 -1.286556
      ESP Fit Center  435 is at   2.262169  0.987191 -1.286556
      ESP Fit Center  436 is at   4.733995  0.993001 -1.560733
      ESP Fit Center  437 is at   4.511114  1.352967 -1.560733
      ESP Fit Center  438 is at   4.173249  1.608111 -1.560733
      ESP Fit Center  439 is at   3.766030  1.723974 -1.560733
      ESP Fit Center  440 is at   3.344456  1.684910 -1.560733
      ESP Fit Center  441 is at   2.965461  1.496193 -1.560733
      ESP Fit Center  442 is at   2.680231  1.183310 -1.560733
      ESP Fit Center  443 is at   4.456936  0.576830 -1.765609
      ESP Fit Center  444 is at   4.350131  0.975431 -1.765609
      ESP Fit Center  445 is at   4.058334  1.267228 -1.765609
      ESP Fit Center  446 is at   3.659732  1.374033 -1.765609
      ESP Fit Center  447 is at   3.261130  1.267228 -1.765609
      ESP Fit Center  448 is at   2.969333  0.975431 -1.765609
      ESP Fit Center  449 is at   4.067239  0.576830 -1.892229
      ESP Fit Center  450 is at   3.863485  0.929741 -1.892229
      ESP Fit Center  451 is at   3.455978  0.929741 -1.892229
      ESP Fit Center  452 is at   3.659732  0.576830 -1.935060
      ESP Fit Center  453 is at  -4.203180  2.281726  0.132253
      ESP Fit Center  454 is at  -4.497293  1.959099  0.132253
      ESP Fit Center  455 is at  -4.654999  1.552013  0.132253
      ESP Fit Center  456 is at  -4.654999  1.115446  0.132253
      ESP Fit Center  457 is at  -3.811038  2.752174 -0.215687
      ESP Fit Center  458 is at  -4.214748  2.593729 -0.215687
      ESP Fit Center  459 is at  -4.553821  2.323328 -0.215687
      ESP Fit Center  460 is at  -4.798127  1.964997 -0.215687
      ESP Fit Center  461 is at  -4.925959  1.550574 -0.215687
      ESP Fit Center  462 is at  -4.925959  1.116884 -0.215687
      ESP Fit Center  463 is at  -3.487287  2.956485 -0.620871
      ESP Fit Center  464 is at  -3.907287  2.901191 -0.620871
      ESP Fit Center  465 is at  -4.298665  2.739077 -0.620871
      ESP Fit Center  466 is at  -4.634748  2.481191 -0.620871
      ESP Fit Center  467 is at  -4.892634  2.145107 -0.620871
      ESP Fit Center  468 is at  -5.054748  1.753729 -0.620871
      ESP Fit Center  469 is at  -5.110042  1.333729 -0.620871
      ESP Fit Center  470 is at  -5.054748  0.913729 -0.620871
      ESP Fit Center  471 is at  -3.381799  3.010414 -1.055687
      ESP Fit Center  472 is at  -3.802088  2.983972 -1.055687
      ESP Fit Center  473 is at  -4.202596  2.853839 -1.055687
      ESP Fit Center  474 is at  -4.558159  2.628192 -1.055687
      ESP Fit Center  475 is at  -4.846436  2.321209 -1.055687
      ESP Fit Center  476 is at  -5.049311  1.952179 -1.055687
      ESP Fit Center  477 is at  -5.154040  1.544289 -1.055687
      ESP Fit Center  478 is at  -5.154040  1.123170 -1.055687
      ESP Fit Center  479 is at  -5.049311  0.715280 -1.055687
      ESP Fit Center  480 is at  -3.487287  2.956485 -1.490503
      ESP Fit Center  481 is at  -3.907287  2.901191 -1.490503
      ESP Fit Center  482 is at  -4.298665  2.739077 -1.490503
      ESP Fit Center  483 is at  -4.634748  2.481191 -1.490503
      ESP Fit Center  484 is at  -4.892634  2.145107 -1.490503
      ESP Fit Center  485 is at  -5.054748  1.753729 -1.490503
      ESP Fit Center  486 is at  -5.110042  1.333729 -1.490503
      ESP Fit Center  487 is at  -5.054748  0.913729 -1.490503
      ESP Fit Center  488 is at  -4.892634  0.522352 -1.490503
      ESP Fit Center  489 is at  -3.378560  2.784584 -1.895687
      ESP Fit Center  490 is at  -3.811038  2.752174 -1.895687
      ESP Fit Center  491 is at  -4.214748  2.593729 -1.895687
      ESP Fit Center  492 is at  -4.553821  2.323328 -1.895687
      ESP Fit Center  493 is at  -4.798127  1.964997 -1.895687
      ESP Fit Center  494 is at  -4.925959  1.550574 -1.895687
      ESP Fit Center  495 is at  -4.925959  1.116884 -1.895687
      ESP Fit Center  496 is at  -4.798127  0.702462 -1.895687
      ESP Fit Center  497 is at  -4.553821  0.344131 -1.895687
      ESP Fit Center  498 is at  -2.957777  2.397129 -2.243626
      ESP Fit Center  499 is at  -3.377678  2.516601 -2.243626
      ESP Fit Center  500 is at  -3.812382  2.476320 -2.243626
      ESP Fit Center  501 is at  -4.203180  2.281726 -2.243626
      ESP Fit Center  502 is at  -4.497293  1.959099 -2.243626
      ESP Fit Center  503 is at  -4.654999  1.552013 -2.243626
[...]
 6661 Fit      -0.003140
 6662 Fit      -0.003188
 6663 Fit      -0.003271
 6664 Fit      -0.003343
 6665 Fit      -0.003327
 6666 Fit      -0.003134
 6667 Fit      -0.002681
 6668 Fit      -0.001913
 6669 Fit      -0.000827
 6670 Fit       0.000511
 6671 Fit       0.001952
 6672 Fit       0.003268
 6673 Fit       0.004191
 6674 Fit       0.004494
 6675 Fit       0.002772
 6676 Fit       0.004278
 6677 Fit       0.002841
 6678 Fit       0.001090
 6679 Fit      -0.000533
 6680 Fit      -0.001796
 6681 Fit      -0.002641
 6682 Fit      -0.003127
 6683 Fit      -0.003360
 6684 Fit      -0.003456
 6685 Fit      -0.003506
 6686 Fit      -0.003555
 6687 Fit      -0.003595
 6688 Fit      -0.003571
 6689 Fit      -0.003396
 6690 Fit      -0.002981
 6691 Fit      -0.002266
 6692 Fit      -0.001256
 6693 Fit      -0.000042
 6694 Fit       0.001193
 6695 Fit       0.002204
 6696 Fit       0.002762
 6697 Fit       0.001509
 6698 Fit       0.001478
 6699 Fit       0.001407
 6700 Fit       0.001600
 6701 Fit       0.002099
 6702 Fit       0.002548
 6703 Fit       0.002463
 6704 Fit       0.001660
 6705 Fit       0.000376
 6706 Fit      -0.000985
 6707 Fit      -0.002116
 6708 Fit      -0.002898
 6709 Fit      -0.003358
 6710 Fit      -0.003594
 6711 Fit      -0.003708
 6712 Fit      -0.003758
 6713 Fit      -0.003735
 6714 Fit      -0.003577
 6715 Fit      -0.003197
 6716 Fit      -0.002534
 6717 Fit      -0.001603
 6718 Fit      -0.000522
 6719 Fit       0.000493
 6720 Fit       0.001211
 6721 Fit       0.000356
 6722 Fit       0.000579
 6723 Fit       0.000734
 6724 Fit       0.000928
 6725 Fit       0.000914
 6726 Fit       0.000373
 6727 Fit      -0.000655
 6728 Fit      -0.001802
 6729 Fit      -0.002731
 6730 Fit      -0.003323
 6731 Fit      -0.003631
 6732 Fit      -0.003744
 6733 Fit      -0.003692
 6734 Fit      -0.003421
 6735 Fit      -0.002857
 6736 Fit      -0.002006
 6737 Fit      -0.001020
 6738 Fit      -0.000165
 6739 Fit      -0.000666
 6740 Fit      -0.000324
 6741 Fit      -0.000250
 6742 Fit      -0.000582
 6743 Fit      -0.001423
 6744 Fit      -0.002416
 6745 Fit      -0.003137
 6746 Fit      -0.003467
 6747 Fit      -0.003438
 6748 Fit      -0.003032
 6749 Fit      -0.002259
 6750 Fit      -0.001351
 6751 Fit      -0.001539
 6752 Fit      -0.001331
 6753 Fit      -0.001947
 6754 Fit      -0.002781
 6755 Fit      -0.002957
 6756 Fit      -0.002345
 6757 Fit      -0.002248
 6758 Fit      -0.003297
 6759 Fit      -0.003419
 6760 Fit      -0.003616
 6761 Fit      -0.003475
 6762 Fit      -0.003566
 6763 Fit      -0.003629
 6764 Fit      -0.003352
 6765 Fit       0.006875
 6766 Fit       0.006077
 6767 Fit       0.004929
 6768 Fit       0.004692
 6769 Fit       0.005322
 6770 Fit       0.003464
 6771 Fit       0.003391
 6772 Fit       0.002377
 6773 Fit       0.000040
 6774 Fit      -0.000957
 6775 Fit      -0.000984
 6776 Fit      -0.000581
 6777 Fit      -0.001789
 6778 Fit      -0.002368
 6779 Fit      -0.001928
 6780 Fit      -0.001513
 6781 Fit      -0.001413
 6782 Fit      -0.001297
 6783 Fit      -0.004182
 6784 Fit      -0.003104
 6785 Fit      -0.002129
 6786 Fit      -0.001673
 6787 Fit      -0.001703
 6788 Fit      -0.001923
 6789 Fit      -0.002048
 6790 Fit      -0.004198
 6791 Fit      -0.002612
 6792 Fit      -0.001697
 6793 Fit      -0.001507
 6794 Fit      -0.002709
 6795 Fit      -0.003529
 6796 Fit      -0.001888
 6797 Fit      -0.001269
 6798 Fit       0.009597
 6799 Fit       0.006560
 6800 Fit       0.009830
 6801 Fit       0.007423
 6802 Fit       0.006166
 6803 Fit       0.009890
 6804 Fit       0.013656
 6805 Fit       0.016051
 6806 Fit       0.015610
 6807 Fit       0.012934
 6808 Fit       0.009335
 6809 Fit       0.007483
 6810 Fit       0.009728
 6811 Fit       0.011767
 6812 Fit       0.011365
 6813 Fit       0.008317
 6814 Fit       0.008871
 6815 Fit      -0.005356
 6816 Fit      -0.008134
 6817 Fit      -0.008276
 6818 Fit      -0.005847
 6819 Fit      -0.011756
 6820 Fit      -0.012071
 6821 Fit      -0.010519
 6822 Fit      -0.008255
 6823 Fit      -0.005825
 6824 Fit      -0.015884
 6825 Fit      -0.014170
 6826 Fit      -0.012084
 6827 Fit      -0.009872
 6828 Fit      -0.007602
 6829 Fit      -0.005407
 6830 Fit      -0.021893
 6831 Fit      -0.019996
 6832 Fit      -0.017580
 6833 Fit      -0.015230
 6834 Fit      -0.013032
 6835 Fit      -0.010911
 6836 Fit      -0.008785
 6837 Fit      -0.006647
 6838 Fit      -0.004617
 6839 Fit      -0.023937
 6840 Fit      -0.020363
 6841 Fit      -0.017408
 6842 Fit      -0.014933
 6843 Fit      -0.012733
 6844 Fit      -0.010624
 6845 Fit      -0.008481
 6846 Fit      -0.006271
 6847 Fit      -0.004096
 6848 Fit      -0.027484
 6849 Fit      -0.022888
 6850 Fit      -0.019412
 6851 Fit      -0.016698
 6852 Fit      -0.014448
 6853 Fit      -0.012430
 6854 Fit      -0.010465
 6855 Fit      -0.008423
 6856 Fit      -0.006242
 6857 Fit      -0.003955
 6858 Fit      -0.001735
 6859 Fit      -0.024031
 6860 Fit      -0.020196
 6861 Fit      -0.017326
 6862 Fit      -0.015033
 6863 Fit      -0.013044
 6864 Fit      -0.011153
 6865 Fit      -0.009200
 6866 Fit      -0.007066
 6867 Fit      -0.004686
 6868 Fit      -0.002088
 6869 Fit      -0.023645
 6870 Fit      -0.019877
 6871 Fit      -0.017094
 6872 Fit      -0.014890
 6873 Fit      -0.012990
 6874 Fit      -0.011186
 6875 Fit      -0.009311
 6876 Fit      -0.007218
 6877 Fit      -0.004791
 6878 Fit      -0.001953
 6879 Fit       0.001277
 6880 Fit      -0.021842
 6881 Fit      -0.018668
 6882 Fit      -0.016263
 6883 Fit      -0.014317
 6884 Fit      -0.012608
 6885 Fit      -0.010962
 6886 Fit      -0.009225
 6887 Fit      -0.007253
 6888 Fit      -0.004901
 6889 Fit      -0.002029
 6890 Fit       0.001499
 6891 Fit      -0.018639
 6892 Fit      -0.016473
 6893 Fit      -0.014687
 6894 Fit      -0.013136
 6895 Fit      -0.011687
 6896 Fit      -0.010216
 6897 Fit      -0.008596
 6898 Fit      -0.006691
 6899 Fit      -0.004348
 6900 Fit      -0.001381
 6901 Fit      -0.014628
 6902 Fit      -0.013597
 6903 Fit      -0.012507
 6904 Fit      -0.011379
 6905 Fit      -0.010170
 6906 Fit      -0.008800
 6907 Fit      -0.007158
 6908 Fit      -0.005100
 6909 Fit      -0.002438
 6910 Fit       0.001094
 6911 Fit      -0.009938
 6912 Fit      -0.010722
 6913 Fit      -0.010690
 6914 Fit      -0.010213
 6915 Fit      -0.009437
 6916 Fit      -0.008387
 6917 Fit      -0.007012
 6918 Fit      -0.005201
 6919 Fit      -0.002784
 6920 Fit       0.000498
 6921 Fit      -0.005580
 6922 Fit      -0.007379
 6923 Fit      -0.008060
 6924 Fit      -0.008035
 6925 Fit      -0.007508
 6926 Fit      -0.006540
 6927 Fit      -0.005096
 6928 Fit      -0.003062
 6929 Fit      -0.000241
 6930 Fit      -0.002625
 6931 Fit      -0.004799
 6932 Fit      -0.005797
 6933 Fit      -0.005957
 6934 Fit      -0.005466
 6935 Fit      -0.004381
 6936 Fit      -0.002654
 6937 Fit      -0.000152
 6938 Fit       0.003355
 6939 Fit      -0.000947
 6940 Fit      -0.003014
 6941 Fit      -0.003905
 6942 Fit      -0.003849
 6943 Fit      -0.002970
 6944 Fit      -0.001274
 6945 Fit       0.001323
 6946 Fit       0.002961
 6947 Fit       0.000262
 6948 Fit      -0.001419
 6949 Fit      -0.002012
 6950 Fit      -0.001611
 6951 Fit      -0.000286
 6952 Fit       0.001933
 6953 Fit       0.004954
 6954 Fit       0.003443
 6955 Fit       0.001191
 6956 Fit       0.000061
 6957 Fit       0.000200
 6958 Fit       0.001519
 6959 Fit       0.003764
 6960 Fit       0.006257
 6961 Fit       0.004106
 6962 Fit       0.002305
 6963 Fit       0.002049
 6964 Fit       0.003302
 6965 Fit       0.006737
 6966 Fit       0.004898
 6967 Fit       0.003890
 6968 Fit       0.002461
 6969 Fit       0.003953
 6970 Fit       0.001919
 6971 Fit       0.000664
 6972 Fit       0.001224
 6973 Fit       0.003119
 6974 Fit       0.004549
 6975 Fit      -0.000094
 6976 Fit      -0.000824
 6977 Fit      -0.000760
 6978 Fit       0.000096
 6979 Fit       0.001738
 6980 Fit       0.003851
 6981 Fit       0.005777
 6982 Fit       0.006913
 6983 Fit      -0.001482
 6984 Fit      -0.002002
 6985 Fit      -0.002122
 6986 Fit      -0.001834
 6987 Fit      -0.001055
 6988 Fit       0.000337
 6989 Fit       0.002323
 6990 Fit       0.004615
 6991 Fit       0.006788
 6992 Fit       0.008491
 6993 Fit       0.009555
 6994 Fit      -0.002612
 6995 Fit      -0.003004
 6996 Fit       0.001865
 6997 Fit       0.004475
 6998 Fit       0.007080
 6999 Fit      -0.003318
 7000 Fit       0.005031
 7001 Fit       0.021004
 7002 Fit       0.012517
 7003 Fit       0.015428
 7004 Fit       0.018493
 7005 Fit       0.022317
 7006 Fit       0.011464
 7007 Fit       0.014711
 7008 Fit       0.018367
 7009 Fit       0.023180
 7010 Fit       0.010595
 7011 Fit       0.014055
 7012 Fit       0.018074
 7013 Fit       0.008094
 7014 Fit       0.011724
 7015 Fit       0.015757
 7016 Fit       0.020568
 7017 Fit       0.010039
 7018 Fit       0.013769
 7019 Fit       0.017508
 7020 Fit       0.013346
 7021 Fit       0.010348
 7022 Fit       0.007504
 7023 Fit       0.010932
 7024 Fit       0.013464
 7025 Fit       0.009050
 7026 Fit       0.008213
 7027 Fit       0.001984
 7028 Fit       0.002427
 7029 Fit       0.001324
 7030 Fit       0.000661
 7031 Fit       0.000532
 7032 Fit       0.001230
 7033 Fit       0.002913
 7034 Fit       0.000778
 7035 Fit       0.000144
 7036 Fit      -0.000376
 7037 Fit      -0.000718
 7038 Fit      -0.000694
 7039 Fit      -0.001293
 7040 Fit      -0.001721
 7041 Fit      -0.001938
 7042 Fit      -0.002812
 7043 Fit       0.013396
 7044 Fit       0.013498
 7045 Fit       0.008540
 7046 Fit       0.010521
 7047 Fit       0.012099
 7048 Fit       0.006497
 7049 Fit       0.008654
 7050 Fit       0.010608
 7051 Fit       0.012308
 7052 Fit       0.013844
 7053 Fit       0.005501
 7054 Fit       0.007889
 7055 Fit       0.010017
 7056 Fit       0.011854
 7057 Fit       0.013479
 7058 Fit       0.015066
 7059 Fit       0.008462
 7060 Fit       0.010636
 7061 Fit       0.012472
 7062 Fit       0.014087
 7063 Fit       0.015668
 7064 Fit       0.008967
 7065 Fit       0.011126
 7066 Fit       0.012928
 7067 Fit       0.014501
 7068 Fit       0.016003
 7069 Fit       0.007700
 7070 Fit       0.010249
 7071 Fit       0.012306
 7072 Fit       0.014030
 7073 Fit       0.015561
 7074 Fit       0.017072
 7075 Fit       0.009057
 7076 Fit       0.011411
 7077 Fit       0.013326
 7078 Fit       0.014957
 7079 Fit       0.016437
 7080 Fit       0.017918
 7081 Fit       0.009505
 7082 Fit       0.011840
 7083 Fit       0.013748
 7084 Fit       0.015384
 7085 Fit       0.016874
 7086 Fit       0.018339
 7087 Fit       0.010937
 7088 Fit       0.013128
 7089 Fit       0.014973
 7090 Fit       0.016622
 7091 Fit       0.018201
 7092 Fit       0.019814
 7093 Fit       0.008939
 7094 Fit       0.011672
 7095 Fit       0.013894
 7096 Fit       0.015832
 7097 Fit       0.017657
 7098 Fit       0.019520
 7099 Fit       0.009783
 7100 Fit       0.012448
 7101 Fit       0.014712
 7102 Fit       0.016815
 7103 Fit       0.018978
 7104 Fit       0.021449
 7105 Fit       0.011957
 7106 Fit       0.014565
 7107 Fit       0.017076
 7108 Fit       0.019841
 7109 Fit       0.011412
 7110 Fit       0.014331
 7111 Fit      -0.004516
 7112 Fit      -0.008285
 7113 Fit      -0.006768
 7114 Fit      -0.003497
 7115 Fit      -0.001572
 7116 Fit      -0.002374
 7117 Fit      -0.005762
 7118 Fit      -0.013200
 7119 Fit      -0.012236
 7120 Fit      -0.009226
 7121 Fit      -0.005731
 7122 Fit      -0.002717
 7123 Fit      -0.000537
 7124 Fit       0.000754
 7125 Fit       0.001001
 7126 Fit      -0.000213
 7127 Fit      -0.003103
 7128 Fit      -0.007208
 7129 Fit      -0.011201
 7130 Fit      -0.019754
 7131 Fit      -0.018826
 7132 Fit      -0.015814
 7133 Fit      -0.011962
 7134 Fit      -0.008183
 7135 Fit      -0.004877
 7136 Fit      -0.002175
 7137 Fit      -0.000105
 7138 Fit       0.001430
 7139 Fit      -0.008798
 7140 Fit      -0.013790
 7141 Fit      -0.017891
 7142 Fit      -0.023736
 7143 Fit      -0.018965
 7144 Fit      -0.014261
 7145 Fit      -0.010103
 7146 Fit      -0.006549
 7147 Fit      -0.003546
 7148 Fit      -0.001116
 7149 Fit       0.000716
 7150 Fit       0.002102
 7151 Fit      -0.015634
 7152 Fit      -0.021175
 7153 Fit      -0.015847
 7154 Fit      -0.011465
 7155 Fit      -0.007762
 7156 Fit      -0.004510
 7157 Fit      -0.001739
 7158 Fit       0.000351
 7159 Fit      -0.023026
 7160 Fit      -0.017553
 7161 Fit      -0.013256
 7162 Fit      -0.009573
 7163 Fit      -0.022672
 7164 Fit       0.002167
 7165 Fit       0.001718
 7166 Fit      -0.000680
 7167 Fit       0.002706
 7168 Fit       0.003557
 7169 Fit       0.003974
 7170 Fit       0.003416
 7171 Fit       0.001511
 7172 Fit      -0.001511
 7173 Fit       0.002741
 7174 Fit       0.003530
 7175 Fit       0.004436
 7176 Fit       0.005315
 7177 Fit       0.005755
 7178 Fit      -0.002183
 7179 Fit      -0.006107
 7180 Fit       0.002656
 7181 Fit       0.003243
 7182 Fit       0.004183
 7183 Fit       0.005474
 7184 Fit       0.006784
 7185 Fit      -0.006475
 7186 Fit      -0.011500
 7187 Fit      -0.006865
 7188 Fit      -0.012602
 7189 Fit      -0.011249
 7190 Fit      -0.008774
 7191 Fit      -0.011477
 7192 Fit      -0.006412
 7193 Fit       0.022774
 7194 Fit       0.005171
 7195 Fit       0.004732
 7196 Fit       0.002669
 7197 Fit       0.006742
 7198 Fit       0.006935
 7199 Fit       0.006288
 7200 Fit       0.004711
 7201 Fit       0.002345
 7202 Fit      -0.000348
 7203 Fit       0.008069
 7204 Fit       0.008599
 7205 Fit       0.008575
 7206 Fit       0.007895
 7207 Fit       0.006595
 7208 Fit       0.004713
 7209 Fit       0.002261
 7210 Fit      -0.000689
 7211 Fit      -0.003812
 7212 Fit       0.009794
 7213 Fit       0.010464
 7214 Fit       0.010474
 7215 Fit       0.009871
 7216 Fit       0.008776
 7217 Fit       0.007259
 7218 Fit       0.005309
 7219 Fit       0.002862
 7220 Fit      -0.000163
 7221 Fit      -0.003794
 7222 Fit       0.012816
 7223 Fit       0.012293
 7224 Fit       0.011289
 7225 Fit       0.009970
 7226 Fit       0.008372
 7227 Fit       0.006452
 7228 Fit       0.004114
 7229 Fit       0.001220
 7230 Fit      -0.002405
 7231 Fit      -0.006947
 7232 Fit       0.014052
 7233 Fit       0.012636
 7234 Fit       0.011120
 7235 Fit       0.009472
 7236 Fit       0.007615
 7237 Fit       0.005442
 7238 Fit       0.002813
 7239 Fit      -0.000465
 7240 Fit      -0.004679
 7241 Fit       0.015056
 7242 Fit       0.013224
 7243 Fit       0.011466
 7244 Fit       0.009654
 7245 Fit       0.007659
 7246 Fit       0.005346
 7247 Fit       0.002549
 7248 Fit      -0.000975
 7249 Fit      -0.005635
 7250 Fit       0.015518
 7251 Fit       0.013509
 7252 Fit       0.011654
 7253 Fit       0.009772
 7254 Fit       0.007719
 7255 Fit       0.005359
 7256 Fit       0.002529
 7257 Fit      -0.001013
 7258 Fit       0.016323
 7259 Fit       0.014184
 7260 Fit       0.012267
 7261 Fit       0.010358
 7262 Fit       0.008306
 7263 Fit       0.005985
 7264 Fit       0.003267
 7265 Fit       0.018528
 7266 Fit       0.015981
 7267 Fit       0.013883
 7268 Fit       0.011908
 7269 Fit       0.009856
 7270 Fit       0.007589
 7271 Fit       0.018675
 7272 Fit       0.016222
 7273 Fit       0.014111
 7274 Fit       0.012027
 7275 Fit       0.009768
 7276 Fit       0.018887
 7277 Fit       0.016653
 7278 Fit       0.014553
 7279 Fit       0.020898
 7280 Fit      -0.003726
 7281 Fit       0.000032
 7282 Fit       0.005518
 7283 Fit       0.002987
 7284 Fit       0.008038
 7285 Fit       0.005915
 7286 Fit       0.004236
 7287 Fit       0.014309
 7288 Fit       0.011663
 7289 Fit       0.009477
 7290 Fit       0.007782
 7291 Fit       0.006581
 7292 Fit       0.020823
 7293 Fit       0.018004
 7294 Fit       0.015435
 7295 Fit       0.013195
 7296 Fit       0.011367
 7297 Fit       0.010013
 7298 Fit       0.009161
 7299 Fit       0.023481
 7300 Fit       0.021437
 7301 Fit       0.019255
 7302 Fit       0.017146
 7303 Fit       0.015267
 7304 Fit       0.013740
 7305 Fit       0.012652
 7306 Fit       0.012038
 7307 Fit       0.022217
 7308 Fit       0.020445
 7309 Fit       0.018705
 7310 Fit       0.017198
 7311 Fit       0.016071
 7312 Fit       0.015408
 7313 Fit       0.020100
 7314 Fit       0.019254
 7315 Fit       0.008138
 7316 Fit       0.012390
 7317 Fit       0.012942
 7318 Fit       0.016621
 7319 Fit       0.023997
 7320 Fit       0.023777
 7321 Fit       0.022996
 7322 Fit       0.021975
 7323 Fit       0.023261
 7324 Fit       0.024004
 7325 Fit       0.024044
 7326 Fit       0.023671
 7327 Fit       0.023154
 7328 Fit       0.022749
 7329 Fit       0.022722
 7330 Fit       0.020711
 7331 Fit       0.022564
 7332 Fit       0.023840
 7333 Fit       0.024512
 7334 Fit       0.024718
 7335 Fit       0.024670
 7336 Fit       0.024607
 7337 Fit       0.024796
 7338 Fit       0.016350
 7339 Fit       0.016841
 7340 Fit       0.017402
 7341 Fit       0.018208
 7342 Fit       0.019371
 7343 Fit       0.020874
 7344 Fit       0.022475
 7345 Fit       0.023854
 7346 Fit       0.024822
 7347 Fit       0.025381
 7348 Fit       0.025684
 7349 Fit       0.025968
 7350 Fit       0.026548
 7351 Fit       0.018929
 7352 Fit       0.018781
 7353 Fit       0.019087
 7354 Fit       0.019631
 7355 Fit       0.020395
 7356 Fit       0.021419
 7357 Fit       0.022655
 7358 Fit       0.023924
 7359 Fit       0.025012
 7360 Fit       0.025811
 7361 Fit       0.026387
 7362 Fit       0.026946
 7363 Fit       0.021846
 7364 Fit       0.021264
 7365 Fit       0.021272
 7366 Fit       0.021722
 7367 Fit       0.022492
 7368 Fit       0.023508
 7369 Fit       0.024631
 7370 Fit       0.025669
 7371 Fit       0.026521
 7372 Fit       0.027279
 7373 Fit       0.023470
 7374 Fit       0.023267
 7375 Fit       0.023746
 7376 Fit       0.024674
 7377 Fit       0.025774
 7378 Fit       0.026806
 7379 Fit       0.027778
 7380 Fit       0.025649
 7381 Fit       0.024968
 7382 Fit       0.025614
 7383 Fit       0.026801
 7384 Fit       0.026435
 -----------------------------------------------------------------
 Leave Link  602 at Wed Nov 29 20:27:06 2017, MaxMem=  2147483648 cpu:         1.2

 Test job not archived.
 1\1\GINC-LAC-345\FOpt\RHF\6-31G(d)\C9H9Cl1F1N1O1\ROOT\29-Nov-2017\0\\#
 HF/6-31G* SCF=tight Test Pop=MK iop(6/33=2) iop(6/42=6) opt\\remark li
 ne goes here\\0,1\H,18.7317596168,-12.3185259513,20.1093454967\C,17.95
 05033347,-12.1384385333,20.8338025956\H,18.3139860946,-11.4648977035,2
 1.6016482402\H,17.6938870868,-13.0836873037,21.3013978468\C,16.7302747
 446,-11.6051899876,20.113729069\O,16.4796115995,-11.9061555997,18.9799
 583282\H,10.8093828098,-10.4218852085,24.0786198302\H,11.641199455,-12
 .5146218009,23.0212470882\C,11.5822281219,-10.3887812711,23.3349478111
 \C,12.044028439,-11.557337304,22.7495102869\Cl,11.5560180118,-7.703272
 3618,23.6751560779\C,12.1266806664,-9.1811987274,22.9479132503\C,13.03
 44203845,-11.4847111383,21.798458934\F,13.4645823457,-12.6106726318,21
 .2412817511\C,13.1234348453,-9.1255239871,21.9874858984\C,13.597560552
 7,-10.2846521341,21.3929843462\H,13.5293988851,-8.1737908946,21.699447
 118\H,14.4130171177,-10.8403745483,19.4859466292\C,14.6890454789,-10.2
 513237112,20.3464426959\H,14.8279274099,-9.2285116978,20.0115538271\N,
 15.9307668431,-10.7966612911,20.8529783929\H,16.2122861559,-10.5477862
 129,21.7731444861\\Version=ES64L-G09RevD.01\State=1-A\HF=-1034.3028738
 \RMSD=3.791e-09\RMSF=2.250e-06\Dipole=0.1469317,0.2544835,1.3170073\Qu
 adrupole=6.9643288,-0.4009647,-6.5633641,4.7534718,5.1509312,-8.160370
 2\PG=C01 [X(C9H9Cl1F1N1O1)]\\@


 ALL SCIENCE IS EITHER PHYSICS, OR STAMP COLLECTING.
   --ERNEST RUTHERFORD, 1871-1937.
 Job cpu time:       0 days  0 hours 13 minutes 18.2 seconds.
 File lengths (MBytes):  RWF=    134 Int=      0 D2E=      0 Chk=      5 Scr=      2
 Normal termination of Gaussian 09 at Wed Nov 29 20:27:06 2017.
