 Entering Gaussian System, Link 0=g09
 Initial command:
 /opt/software/Gaussian/g09/l1.exe "/mnt/ls15/scratch/users/songlin3/Gau-25265.inp" -scrdir="/mnt/ls15/scratch/users/songlin3/"
 Entering Link 1 = /opt/software/Gaussian/g09/l1.exe PID=     25266.
  
 Copyright (c) 1988,1990,1992,1993,1995,1998,2003,2009,2013,
            Gaussian, Inc.  All Rights Reserved.
  
 This is part of the Gaussian(R) 09 program.  It is based on
 the Gaussian(R) 03 system (copyright 2003, Gaussian, Inc.),
 the Gaussian(R) 98 system (copyright 1998, Gaussian, Inc.),
 the Gaussian(R) 94 system (copyright 1995, Gaussian, Inc.),
 the Gaussian 92(TM) system (copyright 1992, Gaussian, Inc.),
 the Gaussian 90(TM) system (copyright 1990, Gaussian, Inc.),
 the Gaussian 88(TM) system (copyright 1988, Gaussian, Inc.),
 the Gaussian 86(TM) system (copyright 1986, Carnegie Mellon
 University), and the Gaussian 82(TM) system (copyright 1983,
 Carnegie Mellon University). Gaussian is a federally registered
 trademark of Gaussian, Inc.
  
 This software contains proprietary and confidential information,
 including trade secrets, belonging to Gaussian, Inc.
  
 This software is provided under written license and may be
 used, copied, transmitted, or stored only in accord with that
 written license.
  
 The following legend is applicable only to US Government
 contracts under FAR:
  
                    RESTRICTED RIGHTS LEGEND
  
 Use, reproduction and disclosure by the US Government is
 subject to restrictions as set forth in subparagraphs (a)
 and (c) of the Commercial Computer Software - Restricted
 Rights clause in FAR 52.227-19.
  
 Gaussian, Inc.
 340 Quinnipiac St., Bldg. 40, Wallingford CT 06492
  
  
 ---------------------------------------------------------------
 Warning -- This program may not be used in any manner that
 competes with the business of Gaussian, Inc. or will provide
 assistance to any competitor of Gaussian, Inc.  The licensee
 of this program is prohibited from giving any competitor of
 Gaussian, Inc. access to this program.  By using this program,
 the user acknowledges that Gaussian, Inc. is engaged in the
 business of creating and licensing software in the field of
 computational chemistry and represents and warrants to the
 licensee that it is not a competitor of Gaussian, Inc. and that
 it will not use this program in any manner prohibited above.
 ---------------------------------------------------------------
  

 Cite this work as:
 Gaussian 09, Revision D.01,
 M. J. Frisch, G. W. Trucks, H. B. Schlegel, G. E. Scuseria, 
 M. A. Robb, J. R. Cheeseman, G. Scalmani, V. Barone, B. Mennucci, 
 G. A. Petersson, H. Nakatsuji, M. Caricato, X. Li, H. P. Hratchian, 
 A. F. Izmaylov, J. Bloino, G. Zheng, J. L. Sonnenberg, M. Hada, 
 M. Ehara, K. Toyota, R. Fukuda, J. Hasegawa, M. Ishida, T. Nakajima, 
 Y. Honda, O. Kitao, H. Nakai, T. Vreven, J. A. Montgomery, Jr., 
 J. E. Peralta, F. Ogliaro, M. Bearpark, J. J. Heyd, E. Brothers, 
 K. N. Kudin, V. N. Staroverov, T. Keith, R. Kobayashi, J. Normand, 
 K. Raghavachari, A. Rendell, J. C. Burant, S. S. Iyengar, J. Tomasi, 
 M. Cossi, N. Rega, J. M. Millam, M. Klene, J. E. Knox, J. B. Cross, 
 V. Bakken, C. Adamo, J. Jaramillo, R. Gomperts, R. E. Stratmann, 
 O. Yazyev, A. J. Austin, R. Cammi, C. Pomelli, J. W. Ochterski, 
 R. L. Martin, K. Morokuma, V. G. Zakrzewski, G. A. Voth, 
 P. Salvador, J. J. Dannenberg, S. Dapprich, A. D. Daniels, 
 O. Farkas, J. B. Foresman, J. V. Ortiz, J. Cioslowski, 
 and D. J. Fox, Gaussian, Inc., Wallingford CT, 2013.
 
 ******************************************
 Gaussian 09:  ES64L-G09RevD.01 24-Apr-2013
                29-Nov-2017 
 ******************************************
 %RWF=myrwf
 %NoSave
 %chk=esp.chk
 %NprocShared=4
 Will use up to    4 processors via shared memory.
 %Mem=16GB
 ----------------------------------------------------------------------
 #HF/6-31G* SCF=tight Test Pop=MK iop(6/33=2) iop(6/42=6) opt # iop(6/5
 0=1)
 ----------------------------------------------------------------------
 1/18=20,19=15,38=1/1,3;
 2/9=110,12=2,17=6,18=5,40=1/2;
 3/5=1,6=6,7=1,11=9,16=1,25=1,30=1,71=1/1,2,3;
 4//1;
 5/5=2,32=2,38=5/2;
 6/7=2,8=2,9=2,10=2,15=8,20=1,28=1,33=2,42=6,50=1/1,2;
 7//1,2,3,16;
 1/18=20,19=15/3(2);
 2/9=110/2;
 99//99;
 2/9=110/2;
 3/5=1,6=6,7=1,11=9,16=1,25=1,30=1,71=1/1,2,3;
 4/5=5,16=3,69=1/1;
 5/5=2,32=2,38=5/2;
 7//1,2,3,16;
 1/18=20,19=15/3(-5);
 2/9=110/2;
 6/7=2,8=2,9=2,10=2,15=8,19=2,20=1,28=1,33=2,42=6,50=1/1,2;
 99/9=1/99;
 ---------------------
 remark line goes here
 ---------------------
 Symbolic Z-matrix:
 Charge =  0 Multiplicity = 1
 H                    -4.85348  -0.14568   1.27455 
 C                    -3.94317  -0.72849   1.29853 
 H                    -4.21703  -1.77871   1.28784 
 H                    -3.40292  -0.52169   2.21504 
 C                    -3.13617  -0.42207   0.05392 
 O                    -3.66254  -0.20345  -1.0034 
 H                     4.69691  -1.57687   0.51893 
 H                     4.09224   0.72746   0.8095 
 C                     3.75304  -1.89452   0.09141 
 C                     3.09622   0.52046   0.4582 
 H                     2.46017   2.53593   0.72128 
 H                     3.9518   -2.27058  -0.90795 
 H                     3.38335  -2.72614   0.68378 
 C                     2.7571   -0.75857   0.05878 
 C                     2.16488   1.54953   0.40829 
 H                     0.33176   3.38883   0.3207 
 C                     1.45455  -0.97057  -0.38777 
 C                     0.87082   1.33975  -0.03633 
 H                     1.16846  -1.95912  -0.70808 
 C                    -0.1097    2.49004  -0.09308 
 C                     0.51432   0.04445  -0.44071 
 H                    -0.40376   2.70976  -1.11535 
 H                    -1.01511   2.27437   0.4627 
 H                    -1.27847   0.5007   -1.55402 
 H                    -0.8726   -1.18836  -1.50662 
 C                    -0.88638  -0.27782  -0.91681 
 N                    -1.79252  -0.42446   0.21157 
 H                    -1.40637  -0.72426   1.07724 
 

 GradGradGradGradGradGradGradGradGradGradGradGradGradGradGradGradGradGrad
 Berny optimization.
 Initialization pass.
                           ----------------------------
                           !    Initial Parameters    !
                           ! (Angstroms and Degrees)  !
 --------------------------                            --------------------------
 ! Name  Definition              Value          Derivative Info.                !
 --------------------------------------------------------------------------------
 ! R1    R(1,2)                  1.0812         estimate D2E/DX2                !
 ! R2    R(2,3)                  1.0854         estimate D2E/DX2                !
 ! R3    R(2,4)                  1.0838         estimate D2E/DX2                !
 ! R4    R(2,5)                  1.5147         estimate D2E/DX2                !
 ! R5    R(5,6)                  1.2012         estimate D2E/DX2                !
 ! R6    R(5,27)                 1.3529         estimate D2E/DX2                !
 ! R7    R(7,9)                  1.0838         estimate D2E/DX2                !
 ! R8    R(8,10)                 1.0763         estimate D2E/DX2                !
 ! R9    R(9,12)                 1.0861         estimate D2E/DX2                !
 ! R10   R(9,13)                 1.0859         estimate D2E/DX2                !
 ! R11   R(9,14)                 1.5111         estimate D2E/DX2                !
 ! R12   R(10,14)                1.3822         estimate D2E/DX2                !
 ! R13   R(10,15)                1.3888         estimate D2E/DX2                !
 ! R14   R(11,15)                1.0762         estimate D2E/DX2                !
 ! R15   R(14,17)                1.3932         estimate D2E/DX2                !
 ! R16   R(15,18)                1.3843         estimate D2E/DX2                !
 ! R17   R(16,20)                1.0835         estimate D2E/DX2                !
 ! R18   R(17,19)                1.0778         estimate D2E/DX2                !
 ! R19   R(17,21)                1.3846         estimate D2E/DX2                !
 ! R20   R(18,20)                1.5126         estimate D2E/DX2                !
 ! R21   R(18,21)                1.403          estimate D2E/DX2                !
 ! R22   R(20,22)                1.0862         estimate D2E/DX2                !
 ! R23   R(20,23)                1.084          estimate D2E/DX2                !
 ! R24   R(21,26)                1.5141         estimate D2E/DX2                !
 ! R25   R(24,26)                1.0798         estimate D2E/DX2                !
 ! R26   R(25,26)                1.085          estimate D2E/DX2                !
 ! R27   R(26,27)                1.4546         estimate D2E/DX2                !
 ! R28   R(27,28)                0.9942         estimate D2E/DX2                !
 ! A1    A(1,2,3)              107.9945         estimate D2E/DX2                !
 ! A2    A(1,2,4)              109.6096         estimate D2E/DX2                !
 ! A3    A(1,2,5)              108.7428         estimate D2E/DX2                !
 ! A4    A(3,2,4)              108.5859         estimate D2E/DX2                !
 ! A5    A(3,2,5)              108.7887         estimate D2E/DX2                !
 ! A6    A(4,2,5)              112.9976         estimate D2E/DX2                !
 ! A7    A(2,5,6)              121.7792         estimate D2E/DX2                !
 ! A8    A(2,5,27)             115.6609         estimate D2E/DX2                !
 ! A9    A(6,5,27)             122.5569         estimate D2E/DX2                !
 ! A10   A(7,9,12)             107.7631         estimate D2E/DX2                !
 ! A11   A(7,9,13)             107.8055         estimate D2E/DX2                !
 ! A12   A(7,9,14)             111.2346         estimate D2E/DX2                !
 ! A13   A(12,9,13)            107.4017         estimate D2E/DX2                !
 ! A14   A(12,9,14)            111.1634         estimate D2E/DX2                !
 ! A15   A(13,9,14)            111.2912         estimate D2E/DX2                !
 ! A16   A(8,10,14)            119.9578         estimate D2E/DX2                !
 ! A17   A(8,10,15)            119.3286         estimate D2E/DX2                !
 ! A18   A(14,10,15)           120.7133         estimate D2E/DX2                !
 ! A19   A(9,14,10)            121.8498         estimate D2E/DX2                !
 ! A20   A(9,14,17)            120.5798         estimate D2E/DX2                !
 ! A21   A(10,14,17)           117.5695         estimate D2E/DX2                !
 ! A22   A(10,15,11)           118.9925         estimate D2E/DX2                !
 ! A23   A(10,15,18)           121.7443         estimate D2E/DX2                !
 ! A24   A(11,15,18)           119.2629         estimate D2E/DX2                !
 ! A25   A(14,17,19)           118.8812         estimate D2E/DX2                !
 ! A26   A(14,17,21)           122.3836         estimate D2E/DX2                !
 ! A27   A(19,17,21)           118.7346         estimate D2E/DX2                !
 ! A28   A(15,18,20)           120.1856         estimate D2E/DX2                !
 ! A29   A(15,18,21)           118.0357         estimate D2E/DX2                !
 ! A30   A(20,18,21)           121.7743         estimate D2E/DX2                !
 ! A31   A(16,20,18)           110.6341         estimate D2E/DX2                !
 ! A32   A(16,20,22)           107.5734         estimate D2E/DX2                !
 ! A33   A(16,20,23)           108.0323         estimate D2E/DX2                !
 ! A34   A(18,20,22)           111.3863         estimate D2E/DX2                !
 ! A35   A(18,20,23)           111.7706         estimate D2E/DX2                !
 ! A36   A(22,20,23)           107.2568         estimate D2E/DX2                !
 ! A37   A(17,21,18)           119.5532         estimate D2E/DX2                !
 ! A38   A(17,21,26)           118.9596         estimate D2E/DX2                !
 ! A39   A(18,21,26)           121.4808         estimate D2E/DX2                !
 ! A40   A(21,26,24)           111.5942         estimate D2E/DX2                !
 ! A41   A(21,26,25)           109.7442         estimate D2E/DX2                !
 ! A42   A(21,26,27)           110.7214         estimate D2E/DX2                !
 ! A43   A(24,26,25)           106.7919         estimate D2E/DX2                !
 ! A44   A(24,26,27)           107.7143         estimate D2E/DX2                !
 ! A45   A(25,26,27)           110.1831         estimate D2E/DX2                !
 ! A46   A(5,27,26)            121.8789         estimate D2E/DX2                !
 ! A47   A(5,27,28)            119.1948         estimate D2E/DX2                !
 ! A48   A(26,27,28)           117.639          estimate D2E/DX2                !
 ! D1    D(1,2,5,6)            -35.4426         estimate D2E/DX2                !
 ! D2    D(1,2,5,27)           145.167          estimate D2E/DX2                !
 ! D3    D(3,2,5,6)             81.9462         estimate D2E/DX2                !
 ! D4    D(3,2,5,27)           -97.4443         estimate D2E/DX2                !
 ! D5    D(4,2,5,6)           -157.3816         estimate D2E/DX2                !
 ! D6    D(4,2,5,27)            23.228          estimate D2E/DX2                !
 ! D7    D(2,5,27,26)          173.8618         estimate D2E/DX2                !
 ! D8    D(2,5,27,28)            7.1291         estimate D2E/DX2                !
 ! D9    D(6,5,27,26)           -5.5235         estimate D2E/DX2                !
 ! D10   D(6,5,27,28)         -172.2561         estimate D2E/DX2                !
 ! D11   D(7,9,14,10)            3.8005         estimate D2E/DX2                !
 ! D12   D(7,9,14,17)         -176.5633         estimate D2E/DX2                !
 ! D13   D(12,9,14,10)        -116.2926         estimate D2E/DX2                !
 ! D14   D(12,9,14,17)          63.3436         estimate D2E/DX2                !
 ! D15   D(13,9,14,10)         124.0336         estimate D2E/DX2                !
 ! D16   D(13,9,14,17)         -56.3302         estimate D2E/DX2                !
 ! D17   D(8,10,14,9)           -0.322          estimate D2E/DX2                !
 ! D18   D(8,10,14,17)        -179.9686         estimate D2E/DX2                !
 ! D19   D(15,10,14,9)         179.4772         estimate D2E/DX2                !
 ! D20   D(15,10,14,17)         -0.1694         estimate D2E/DX2                !
 ! D21   D(8,10,15,11)           0.1103         estimate D2E/DX2                !
 ! D22   D(8,10,15,18)         179.9235         estimate D2E/DX2                !
 ! D23   D(14,10,15,11)       -179.6902         estimate D2E/DX2                !
 ! D24   D(14,10,15,18)          0.123          estimate D2E/DX2                !
 ! D25   D(9,14,17,19)           0.1055         estimate D2E/DX2                !
 ! D26   D(9,14,17,21)        -179.6126         estimate D2E/DX2                !
 ! D27   D(10,14,17,19)        179.7569         estimate D2E/DX2                !
 ! D28   D(10,14,17,21)          0.0388         estimate D2E/DX2                !
 ! D29   D(10,15,18,20)       -179.2012         estimate D2E/DX2                !
 ! D30   D(10,15,18,21)          0.0589         estimate D2E/DX2                !
 ! D31   D(11,15,18,20)          0.6115         estimate D2E/DX2                !
 ! D32   D(11,15,18,21)        179.8716         estimate D2E/DX2                !
 ! D33   D(14,17,21,18)          0.1409         estimate D2E/DX2                !
 ! D34   D(14,17,21,26)       -178.9559         estimate D2E/DX2                !
 ! D35   D(19,17,21,18)       -179.5775         estimate D2E/DX2                !
 ! D36   D(19,17,21,26)          1.3256         estimate D2E/DX2                !
 ! D37   D(15,18,20,16)         -4.5051         estimate D2E/DX2                !
 ! D38   D(15,18,20,22)        115.0952         estimate D2E/DX2                !
 ! D39   D(15,18,20,23)       -124.9402         estimate D2E/DX2                !
 ! D40   D(21,18,20,16)        176.2631         estimate D2E/DX2                !
 ! D41   D(21,18,20,22)        -64.1366         estimate D2E/DX2                !
 ! D42   D(21,18,20,23)         55.828          estimate D2E/DX2                !
 ! D43   D(15,18,21,17)         -0.1865         estimate D2E/DX2                !
 ! D44   D(15,18,21,26)        178.8869         estimate D2E/DX2                !
 ! D45   D(20,18,21,17)        179.0613         estimate D2E/DX2                !
 ! D46   D(20,18,21,26)         -1.8653         estimate D2E/DX2                !
 ! D47   D(17,21,26,24)       -139.5964         estimate D2E/DX2                !
 ! D48   D(17,21,26,25)        -21.4208         estimate D2E/DX2                !
 ! D49   D(17,21,26,27)        100.4297         estimate D2E/DX2                !
 ! D50   D(18,21,26,24)         41.3248         estimate D2E/DX2                !
 ! D51   D(18,21,26,25)        159.5005         estimate D2E/DX2                !
 ! D52   D(18,21,26,27)        -78.649          estimate D2E/DX2                !
 ! D53   D(21,26,27,5)         165.2906         estimate D2E/DX2                !
 ! D54   D(21,26,27,28)        -27.7798         estimate D2E/DX2                !
 ! D55   D(24,26,27,5)          43.021          estimate D2E/DX2                !
 ! D56   D(24,26,27,28)       -150.0493         estimate D2E/DX2                !
 ! D57   D(25,26,27,5)         -73.1169         estimate D2E/DX2                !
 ! D58   D(25,26,27,28)         93.8127         estimate D2E/DX2                !
 --------------------------------------------------------------------------------
 Trust Radius=3.00D-01 FncErr=1.00D-07 GrdErr=1.00D-07
 Number of steps in this run=    144 maximum allowed number of steps=    168.
 GradGradGradGradGradGradGradGradGradGradGradGradGradGradGradGradGradGrad

                          Input orientation:                          
 ---------------------------------------------------------------------
 Center     Atomic      Atomic             Coordinates (Angstroms)
 Number     Number       Type             X           Y           Z
 ---------------------------------------------------------------------
      1          1           0       -4.853481   -0.145682    1.274547
      2          6           0       -3.943168   -0.728487    1.298531
      3          1           0       -4.217029   -1.778713    1.287837
      4          1           0       -3.402922   -0.521692    2.215042
      5          6           0       -3.136166   -0.422072    0.053915
      6          8           0       -3.662539   -0.203451   -1.003403
      7          1           0        4.696907   -1.576865    0.518933
      8          1           0        4.092237    0.727460    0.809500
      9          6           0        3.753044   -1.894522    0.091414
     10          6           0        3.096218    0.520462    0.458198
     11          1           0        2.460171    2.535931    0.721283
     12          1           0        3.951795   -2.270584   -0.907946
     13          1           0        3.383346   -2.726141    0.683778
     14          6           0        2.757099   -0.758565    0.058782
     15          6           0        2.164879    1.549530    0.408294
     16          1           0        0.331763    3.388831    0.320695
     17          6           0        1.454550   -0.970570   -0.387769
     18          6           0        0.870824    1.339751   -0.036330
     19          1           0        1.168456   -1.959117   -0.708084
     20          6           0       -0.109704    2.490042   -0.093079
     21          6           0        0.514315    0.044452   -0.440705
     22          1           0       -0.403764    2.709764   -1.115347
     23          1           0       -1.015108    2.274368    0.462702
     24          1           0       -1.278472    0.500698   -1.554016
     25          1           0       -0.872603   -1.188363   -1.506623
     26          6           0       -0.886384   -0.277824   -0.916807
     27          7           0       -1.792523   -0.424459    0.211574
     28          1           0       -1.406365   -0.724261    1.077242
 ---------------------------------------------------------------------
                    Distance matrix (angstroms):
                    1          2          3          4          5
     1  H    0.000000
     2  C    1.081160   0.000000
     3  H    1.752723   1.085398   0.000000
     4  H    1.769191   1.083800   1.761415   0.000000
     5  C    2.124972   1.514665   2.128686   2.179806   0.000000
     6  O    2.571135   2.377670   2.835258   3.244544   1.201160
     7  H    9.686545   8.716560   8.949313   8.342506   7.931382
     8  H    9.000251   8.180872   8.692158   7.727441   7.358134
     9  C    8.861745   7.877084   8.060205   7.589618   7.044908
    10  C    8.019220   7.198541   7.710907   6.812592   6.316203
    11  H    7.809395   7.210575   7.970078   6.779103   6.365073
    12  H    9.317262   8.341286   8.473080   8.179458   7.387920
    13  H    8.651768   7.618816   7.682982   7.297794   6.943306
    14  C    7.731406   6.814063   7.154701   6.530806   5.902866
    15  C    7.271968   6.579523   7.251176   6.209244   5.666911
    16  H    6.347391   6.015273   6.952006   5.729626   5.159524
    17  C    6.575332   5.660174   5.968883   5.529118   4.644417
    18  C    6.057440   5.406846   6.112650   5.176732   4.378143
    19  H    6.594171   5.627580   5.746277   5.613230   4.633888
    20  C    5.596504   5.195282   6.082706   5.024266   4.202557
    21  C    5.638393   4.846806   5.356996   4.766367   3.713261
    22  H    5.802167   5.493247   6.361031   5.525283   4.317591
    23  H    4.609647   4.276597   5.230737   4.073120   3.454965
    24  H    4.604266   4.092496   4.680487   4.445713   2.624495
    25  H    4.966838   4.184345   4.398034   4.549479   2.854155
    26  C    4.534022   3.801940   4.266886   4.025036   2.454512
    27  N    3.252244   2.428823   2.978351   2.572299   1.352863
    28  H    3.500899   2.546440   3.009327   2.306916   2.032419
                    6          7          8          9         10
     6  O    0.000000
     7  H    8.607213   0.000000
     8  H    8.018090   2.399993   0.000000
     9  C    7.684349   1.083769   2.739615   0.000000
    10  C    6.952778   2.639067   1.076250   2.529446   0.000000
    11  H    6.925773   4.686046   2.437620   4.658022   2.129762
    12  H    7.890515   1.752832   3.457978   1.086115   3.223088
    13  H    7.671704   1.753126   3.527845   1.085892   3.267072
    14  C    6.530554   2.155043   2.134114   1.511082   1.382188
    15  C    6.246970   4.024643   2.133418   3.805808   1.388835
    16  H    5.532827   6.614523   4.632817   6.298536   3.986058
    17  C    5.210765   3.420904   3.357700   2.523168   2.373586
    18  C    4.885497   4.842920   3.386419   4.334055   2.422431
    19  H    5.148601   3.755217   4.250794   2.706190   3.350342
    20  C    4.550410   6.325962   4.645175   5.846303   3.802774
    21  C    4.221871   4.587336   3.851109   3.812104   2.775038
    22  H    4.372524   6.860241   5.277176   6.319397   4.418027
    23  H    3.911258   6.889287   5.347725   6.344507   4.469811
    24  H    2.546130   6.657217   5.872150   5.810393   4.815320
    25  H    3.001171   5.939129   5.803830   4.944592   4.746804
    26  C    2.778501   5.909484   5.364457   5.015428   4.288242
    27  N    2.240976   6.598122   6.026179   5.738365   4.985327
    28  H    3.112981   6.187776   5.693312   5.381530   4.712304
                   11         12         13         14         15
    11  H    0.000000
    12  H    5.289794   0.000000
    13  H    5.342571   1.750500   0.000000
    14  C    3.373541   2.155937   2.157350   0.000000
    15  C    1.076172   4.418012   4.454427   2.408357   0.000000
    16  H    2.327666   6.829580   6.843747   4.811626   2.598272
    17  C    3.812718   2.863015   2.819662   1.393193   2.736638
    18  C    2.128579   4.825621   4.833508   2.823121   1.384296
    19  H    4.890509   2.807834   2.726049   2.133822   3.814415
    20  C    2.696210   6.310574   6.325620   4.335328   2.511905
    21  C    3.368091   4.170608   4.143910   2.434010   2.389649
    22  H    3.406692   6.619500   6.864992   4.837245   3.203990
    23  H    3.494688   6.870618   6.663360   4.857096   3.262004
    24  H    4.826656   5.954251   6.095306   4.524676   4.099680
    25  H    5.471866   4.980405   5.027496   3.976174   4.515447
    26  C    4.669046   5.232509   5.175589   3.802349   3.795434
    27  N    5.206642   6.136668   5.684218   4.564431   4.426778
    28  H    5.070075   5.919625   5.206118   4.286359   4.286187
                   16         17         18         19         20
    16  H    0.000000
    17  C    4.557077   0.000000
    18  C    2.148670   2.408699   0.000000
    19  H    5.509899   1.077811   3.379699   0.000000
    20  C    1.083478   3.809143   1.512556   4.669790   0.000000
    21  C    3.434811   1.384599   1.403003   2.124542   2.547774
    22  H    1.750528   4.186593   2.160043   4.943297   1.086177
    23  H    1.753926   4.165589   2.163165   4.905210   1.084050
    24  H    3.801146   3.315746   2.761676   3.571239   2.730906
    25  H    5.073489   2.591314   3.404799   2.323284   4.013824
    26  C    4.057050   2.497949   2.545500   2.663208   2.990458
    27  N    4.366426   3.346779   3.204264   3.459529   3.379202
    28  H    4.528905   3.223625   3.268911   3.367783   3.658241
                   21         22         23         24         25
    21  C    0.000000
    22  H    2.898603   0.000000
    23  H    2.850930   1.747441   0.000000
    24  H    2.159099   2.416095   2.698595   0.000000
    25  H    2.139990   3.945669   3.986108   1.737787   0.000000
    26  C    1.514098   3.032824   2.904014   1.079752   1.084967
    27  N    2.442713   3.675966   2.819771   2.058512   2.093323
    28  H    2.565949   4.195853   3.085858   2.905237   2.678927
                   26         27         28
    26  C    0.000000
    27  N    1.454590   0.000000
    28  H    2.108534   0.994173   0.000000
 Stoichiometry    C11H15NO
 Framework group  C1[X(C11H15NO)]
 Deg. of freedom    78
 Full point group                 C1      NOp   1
 Largest Abelian subgroup         C1      NOp   1
 Largest concise Abelian subgroup C1      NOp   1
                         Standard orientation:                         
 ---------------------------------------------------------------------
 Center     Atomic      Atomic             Coordinates (Angstroms)
 Number     Number       Type             X           Y           Z
 ---------------------------------------------------------------------
      1          1           0       -4.853481   -0.145682    1.274547
      2          6           0       -3.943168   -0.728487    1.298531
      3          1           0       -4.217029   -1.778713    1.287837
      4          1           0       -3.402922   -0.521692    2.215042
      5          6           0       -3.136166   -0.422072    0.053915
      6          8           0       -3.662539   -0.203451   -1.003403
      7          1           0        4.696907   -1.576865    0.518933
      8          1           0        4.092237    0.727460    0.809500
      9          6           0        3.753044   -1.894522    0.091414
     10          6           0        3.096218    0.520462    0.458198
     11          1           0        2.460171    2.535931    0.721283
     12          1           0        3.951795   -2.270584   -0.907946
     13          1           0        3.383346   -2.726141    0.683778
     14          6           0        2.757099   -0.758565    0.058782
     15          6           0        2.164879    1.549530    0.408294
     16          1           0        0.331763    3.388831    0.320695
     17          6           0        1.454550   -0.970570   -0.387769
     18          6           0        0.870824    1.339751   -0.036330
     19          1           0        1.168456   -1.959117   -0.708084
     20          6           0       -0.109704    2.490042   -0.093079
     21          6           0        0.514315    0.044452   -0.440705
     22          1           0       -0.403764    2.709764   -1.115347
     23          1           0       -1.015108    2.274368    0.462702
     24          1           0       -1.278472    0.500698   -1.554016
     25          1           0       -0.872603   -1.188363   -1.506623
     26          6           0       -0.886384   -0.277824   -0.916807
     27          7           0       -1.792523   -0.424459    0.211574
     28          1           0       -1.406365   -0.724261    1.077242
 ---------------------------------------------------------------------
 Rotational constants (GHZ):      1.5196408      0.4040430      0.3524744
 Standard basis: 6-31G(d) (6D, 7F)
 There are   225 symmetry adapted cartesian basis functions of A   symmetry.
 There are   225 symmetry adapted basis functions of A   symmetry.
   225 basis functions,   424 primitive gaussians,   225 cartesian basis functions
    48 alpha electrons       48 beta electrons
       nuclear repulsion energy       763.6841713632 Hartrees.
 NAtoms=   28 NActive=   28 NUniq=   28 SFac= 1.00D+00 NAtFMM=   60 NAOKFM=F Big=F
 Integral buffers will be    131072 words long.
 Raffenetti 1 integral format.
 Two-electron integral symmetry is turned on.
 One-electron integrals computed using PRISM.
 NBasis=   225 RedAO= T EigKep=  3.40D-04  NBF=   225
 NBsUse=   225 1.00D-06 EigRej= -1.00D+00 NBFU=   225
 ExpMin= 1.61D-01 ExpMax= 5.48D+03 ExpMxC= 8.25D+02 IAcc=1 IRadAn=         1 AccDes= 0.00D+00
 Harris functional with IExCor=  205 and IRadAn=       1 diagonalized for initial guess.
 HarFok:  IExCor=  205 AccDes= 0.00D+00 IRadAn=         1 IDoV= 1 UseB2=F ITyADJ=14
 ICtDFT=  3500011 ScaDFX=  1.000000  1.000000  1.000000  1.000000
 FoFCou: FMM=F IPFlag=           0 FMFlag=      100000 FMFlg1=           0
         NFxFlg=           0 DoJE=T BraDBF=F KetDBF=T FulRan=T
         wScrn=  0.000000 ICntrl=     500 IOpCl=  0 I1Cent=   200000004 NGrid=           0
         NMat0=    1 NMatS0=      1 NMatT0=    0 NMatD0=    1 NMtDS0=    0 NMtDT0=    0
 Petite list used in FoFCou.
 Keep R1 ints in memory in canonical form, NReq=329172988.
 Requested convergence on RMS density matrix=1.00D-08 within 128 cycles.
 Requested convergence on MAX density matrix=1.00D-06.
 Requested convergence on             energy=1.00D-06.
 No special actions if energy rises.
 SCF Done:  E(RHF) =  -554.626834863     A.U. after   15 cycles
            NFock= 15  Conv=0.40D-08     -V/T= 2.0011

 **********************************************************************

            Population analysis using the SCF density.

 **********************************************************************

 Orbital symmetries:
 BldTbl:  Degeneracy threshold= 1.00D-02
       Occupied  (A) (A) (A) (A) (A) (A) (A) (A) (A) (A) (A) (A)
                 (A) (A) (A) (A) (A) (A) (A) (A) (A) (A) (A) (A)
                 (A) (A) (A) (A) (A) (A) (A) (A) (A) (A) (A) (A)
                 (A) (A) (A) (A) (A) (A) (A) (A) (A) (A) (A) (A)
       Virtual   (A) (A) (A) (A) (A) (A) (A) (A) (A) (A) (A) (A)
                 (A) (A) (A) (A) (A) (A) (A) (A) (A) (A) (A) (A)
                 (A) (A) (A) (A) (A) (A) (A) (A) (A) (A) (A) (A)
                 (A) (A) (A) (A) (A) (A) (A) (A) (A) (A) (A) (A)
                 (A) (A) (A) (A) (A) (A) (A) (A) (A) (A) (A) (A)
                 (A) (A) (A) (A) (A) (A) (A) (A) (A) (A) (A) (A)
                 (A) (A) (A) (A) (A) (A) (A) (A) (A) (A) (A) (A)
                 (A) (A) (A) (A) (A) (A) (A) (A) (A) (A) (A) (A)
                 (A) (A) (A) (A) (A) (A) (A) (A) (A) (A) (A) (A)
                 (A) (A) (A) (A) (A) (A) (A) (A) (A) (A) (A) (A)
                 (A) (A) (A) (A) (A) (A) (A) (A) (A) (A) (A) (A)
                 (A) (A) (A) (A) (A) (A) (A) (A) (A) (A) (A) (A)
                 (A) (A) (A) (A) (A) (A) (A) (A) (A) (A) (A) (A)
                 (A) (A) (A) (A) (A) (A) (A) (A) (A) (A) (A) (A)
                 (A) (A) (A) (A) (A) (A) (A) (A) (A)
 The electronic state is 1-A.
 Alpha  occ. eigenvalues --  -20.51504 -15.58066 -11.34178 -11.26190 -11.23925
 Alpha  occ. eigenvalues --  -11.23863 -11.23797 -11.22974 -11.22956 -11.22887
 Alpha  occ. eigenvalues --  -11.22767 -11.22444 -11.21951  -1.38388  -1.23198
 Alpha  occ. eigenvalues --   -1.16169  -1.06929  -1.04052  -1.00106  -0.97730
 Alpha  occ. eigenvalues --   -0.92768  -0.89570  -0.82003  -0.78957  -0.77833
 Alpha  occ. eigenvalues --   -0.68516  -0.66763  -0.66165  -0.64907  -0.62634
 Alpha  occ. eigenvalues --   -0.61148  -0.58298  -0.58005  -0.57336  -0.57244
 Alpha  occ. eigenvalues --   -0.56075  -0.55778  -0.55231  -0.54758  -0.52823
 Alpha  occ. eigenvalues --   -0.50248  -0.48065  -0.47951  -0.47494  -0.41391
 Alpha  occ. eigenvalues --   -0.38523  -0.33354  -0.31569
 Alpha virt. eigenvalues --    0.13931   0.14346   0.20921   0.22739   0.23964
 Alpha virt. eigenvalues --    0.24960   0.26734   0.27565   0.28498   0.29857
 Alpha virt. eigenvalues --    0.30887   0.31240   0.31987   0.32038   0.33806
 Alpha virt. eigenvalues --    0.34805   0.36147   0.37385   0.38814   0.40504
 Alpha virt. eigenvalues --    0.41206   0.42430   0.43445   0.44887   0.50267
 Alpha virt. eigenvalues --    0.51874   0.53377   0.55294   0.57353   0.61492
 Alpha virt. eigenvalues --    0.66251   0.70981   0.71871   0.72972   0.74036
 Alpha virt. eigenvalues --    0.75249   0.75464   0.75700   0.77744   0.78551
 Alpha virt. eigenvalues --    0.80650   0.81155   0.82845   0.83427   0.83979
 Alpha virt. eigenvalues --    0.85133   0.85823   0.88729   0.91299   0.92689
 Alpha virt. eigenvalues --    0.92982   0.94958   0.96462   0.97013   0.99849
 Alpha virt. eigenvalues --    1.01124   1.01354   1.02494   1.05002   1.07859
 Alpha virt. eigenvalues --    1.08247   1.10391   1.11640   1.11777   1.13283
 Alpha virt. eigenvalues --    1.14547   1.14884   1.15714   1.16308   1.17858
 Alpha virt. eigenvalues --    1.19316   1.19778   1.20262   1.21074   1.22198
 Alpha virt. eigenvalues --    1.23016   1.24461   1.25158   1.26443   1.28653
 Alpha virt. eigenvalues --    1.29247   1.33028   1.36581   1.36870   1.38775
 Alpha virt. eigenvalues --    1.43581   1.44789   1.46727   1.49173   1.51477
 Alpha virt. eigenvalues --    1.53825   1.56349   1.59040   1.62219   1.65126
 Alpha virt. eigenvalues --    1.67179   1.68514   1.72133   1.74467   1.75523
 Alpha virt. eigenvalues --    1.76580   1.78724   1.79493   1.85929   1.95879
 Alpha virt. eigenvalues --    1.97328   2.03659   2.07849   2.09358   2.11350
 Alpha virt. eigenvalues --    2.12655   2.13408   2.15080   2.15083   2.16096
 Alpha virt. eigenvalues --    2.20023   2.20565   2.20662   2.21629   2.24941
 Alpha virt. eigenvalues --    2.25744   2.26750   2.30264   2.35297   2.36609
 Alpha virt. eigenvalues --    2.38033   2.43229   2.44319   2.45499   2.51309
 Alpha virt. eigenvalues --    2.53158   2.53591   2.55917   2.57460   2.59280
 Alpha virt. eigenvalues --    2.61254   2.63913   2.64286   2.65712   2.68070
 Alpha virt. eigenvalues --    2.68584   2.71060   2.73299   2.73781   2.74775
 Alpha virt. eigenvalues --    2.80192   2.82030   2.83997   2.95744   2.99292
 Alpha virt. eigenvalues --    3.01120   3.02570   3.06449   3.08329   3.16129
 Alpha virt. eigenvalues --    3.19524   3.21044   3.22373   3.26629   3.34759
 Alpha virt. eigenvalues --    3.38617   3.49938   3.56997   3.82953   4.40054
 Alpha virt. eigenvalues --    4.47777   4.53581   4.55796   4.57503   4.62514
 Alpha virt. eigenvalues --    4.65642   4.72313   4.78982   4.82415   4.89877
 Alpha virt. eigenvalues --    4.94468   5.19396
          Condensed to atoms (all electrons):
               1          2          3          4          5          6
     1  H    0.470156   0.383862  -0.018782  -0.022345  -0.029950   0.002401
     2  C    0.383862   5.257883   0.378035   0.374944   0.371298  -0.073273
     3  H   -0.018782   0.378035   0.491656  -0.024031  -0.026753   0.000070
     4  H   -0.022345   0.374944  -0.024031   0.530875  -0.038575   0.002549
     5  C   -0.029950   0.371298  -0.026753  -0.038575   4.137516   0.610704
     6  O    0.002401  -0.073273   0.000070   0.002549   0.610704   8.155073
     7  H    0.000000   0.000000   0.000000   0.000000   0.000000   0.000000
     8  H    0.000000   0.000000   0.000000   0.000000   0.000000   0.000000
     9  C    0.000000   0.000000   0.000000   0.000000   0.000000   0.000000
    10  C    0.000000   0.000000   0.000000   0.000000   0.000000   0.000000
    11  H    0.000000   0.000000   0.000000   0.000000   0.000000   0.000000
    12  H    0.000000   0.000000   0.000000   0.000000   0.000000   0.000000
    13  H    0.000000   0.000000   0.000000   0.000000   0.000000   0.000000
    14  C    0.000000   0.000000   0.000000   0.000000   0.000000   0.000000
    15  C    0.000000   0.000000   0.000000   0.000000   0.000000   0.000000
    16  H    0.000000   0.000000   0.000000   0.000000  -0.000003   0.000000
    17  C    0.000000  -0.000008   0.000000   0.000001  -0.000138  -0.000011
    18  C    0.000000  -0.000007   0.000000  -0.000005   0.000065   0.000021
    19  H    0.000000   0.000001   0.000000   0.000000   0.000002   0.000001
    20  C    0.000001   0.000001   0.000000   0.000000   0.000024  -0.000016
    21  C    0.000002  -0.000037  -0.000003  -0.000036   0.004648   0.000746
    22  H    0.000000  -0.000002   0.000000   0.000000   0.000011  -0.000010
    23  H   -0.000006   0.000029   0.000001   0.000019   0.000439  -0.000046
    24  H    0.000014   0.000184  -0.000011  -0.000026  -0.002054   0.004748
    25  H   -0.000006  -0.000107   0.000041   0.000002  -0.001005   0.001588
    26  C   -0.000090   0.004775  -0.000172   0.000029  -0.027979   0.008384
    27  N    0.003389  -0.115878   0.000448   0.005937   0.271337  -0.105946
    28  H    0.000072  -0.000397  -0.000012   0.000718  -0.017309   0.002375
               7          8          9         10         11         12
     1  H    0.000000   0.000000   0.000000   0.000000   0.000000   0.000000
     2  C    0.000000   0.000000   0.000000   0.000000   0.000000   0.000000
     3  H    0.000000   0.000000   0.000000   0.000000   0.000000   0.000000
     4  H    0.000000   0.000000   0.000000   0.000000   0.000000   0.000000
     5  C    0.000000   0.000000   0.000000   0.000000   0.000000   0.000000
     6  O    0.000000   0.000000   0.000000   0.000000   0.000000   0.000000
     7  H    0.516332   0.002584   0.399010  -0.001978  -0.000005  -0.025238
     8  H    0.002584   0.479886  -0.002775   0.379275  -0.001485   0.000053
     9  C    0.399010  -0.002775   5.091996  -0.040001  -0.000126   0.389961
    10  C   -0.001978   0.379275  -0.040001   4.915790  -0.029790   0.000044
    11  H   -0.000005  -0.001485  -0.000126  -0.029790   0.479658   0.000002
    12  H   -0.025238   0.000053   0.389961   0.000044   0.000002   0.525974
    13  H   -0.025461   0.000025   0.391417   0.000725   0.000002  -0.030725
    14  C   -0.043361  -0.030614   0.324809   0.590849   0.002001  -0.037216
    15  C    0.000274  -0.029817   0.003504   0.525168   0.379595  -0.000088
    16  H    0.000000  -0.000008   0.000000   0.000321   0.002782   0.000000
    17  C    0.003235   0.003109  -0.052001  -0.037890   0.000459  -0.003349
    18  C   -0.000022   0.001951   0.000402  -0.044678  -0.030327   0.000016
    19  H   -0.000025  -0.000137  -0.001441   0.002846   0.000015   0.000864
    20  C    0.000000  -0.000124   0.000004   0.003643  -0.003099   0.000000
    21  C    0.000006   0.000372   0.001680  -0.038366   0.002551  -0.000067
    22  H    0.000000   0.000002   0.000000  -0.000087   0.000077   0.000000
    23  H    0.000000   0.000002   0.000000  -0.000071   0.000071   0.000000
    24  H    0.000000   0.000000   0.000001  -0.000007  -0.000001   0.000000
    25  H    0.000000   0.000000  -0.000010  -0.000014   0.000002  -0.000002
    26  C    0.000001   0.000008  -0.000124   0.000157  -0.000116   0.000003
    27  N    0.000000   0.000000   0.000001   0.000034   0.000001   0.000000
    28  H    0.000000   0.000000   0.000001  -0.000035   0.000001   0.000000
              13         14         15         16         17         18
     1  H    0.000000   0.000000   0.000000   0.000000   0.000000   0.000000
     2  C    0.000000   0.000000   0.000000   0.000000  -0.000008  -0.000007
     3  H    0.000000   0.000000   0.000000   0.000000   0.000000   0.000000
     4  H    0.000000   0.000000   0.000000   0.000000   0.000001  -0.000005
     5  C    0.000000   0.000000   0.000000  -0.000003  -0.000138   0.000065
     6  O    0.000000   0.000000   0.000000   0.000000  -0.000011   0.000021
     7  H   -0.025461  -0.043361   0.000274   0.000000   0.003235  -0.000022
     8  H    0.000025  -0.030614  -0.029817  -0.000008   0.003109   0.001951
     9  C    0.391417   0.324809   0.003504   0.000000  -0.052001   0.000402
    10  C    0.000725   0.590849   0.525168   0.000321  -0.037890  -0.044678
    11  H    0.000002   0.002001   0.379595   0.002782   0.000459  -0.030327
    12  H   -0.030725  -0.037216  -0.000088   0.000000  -0.003349   0.000016
    13  H    0.530245  -0.038603  -0.000085   0.000000  -0.003425   0.000014
    14  C   -0.038603   4.782099  -0.041304  -0.000012   0.548955  -0.029180
    15  C   -0.000085  -0.041304   4.928637  -0.002171  -0.049290   0.581368
    16  H    0.000000  -0.000012  -0.002171   0.517996  -0.000063  -0.042264
    17  C   -0.003425   0.548955  -0.049290  -0.000063   4.973652  -0.040263
    18  C    0.000014  -0.029180   0.581368  -0.042264  -0.040263   4.800120
    19  H    0.001039  -0.033266   0.000297   0.000002   0.379544   0.002237
    20  C    0.000000   0.000221  -0.043540   0.396472   0.003293   0.322224
    21  C    0.000025  -0.040232  -0.032092   0.002952   0.560798   0.569683
    22  H    0.000000   0.000016  -0.000282  -0.025175   0.000016  -0.039103
    23  H    0.000000   0.000009   0.000819  -0.024646   0.000036  -0.037035
    24  H    0.000000  -0.000017   0.000086   0.000002   0.002336  -0.005002
    25  H    0.000001   0.000231  -0.000070   0.000002  -0.003463   0.003403
    26  C   -0.000003   0.002625   0.003342   0.000180  -0.042503  -0.047531
    27  N    0.000000  -0.000088  -0.000147   0.000056  -0.002104  -0.000458
    28  H    0.000000  -0.000005  -0.000071   0.000001   0.002095   0.001328
              19         20         21         22         23         24
     1  H    0.000000   0.000001   0.000002   0.000000  -0.000006   0.000014
     2  C    0.000001   0.000001  -0.000037  -0.000002   0.000029   0.000184
     3  H    0.000000   0.000000  -0.000003   0.000000   0.000001  -0.000011
     4  H    0.000000   0.000000  -0.000036   0.000000   0.000019  -0.000026
     5  C    0.000002   0.000024   0.004648   0.000011   0.000439  -0.002054
     6  O    0.000001  -0.000016   0.000746  -0.000010  -0.000046   0.004748
     7  H   -0.000025   0.000000   0.000006   0.000000   0.000000   0.000000
     8  H   -0.000137  -0.000124   0.000372   0.000002   0.000002   0.000000
     9  C   -0.001441   0.000004   0.001680   0.000000   0.000000   0.000001
    10  C    0.002846   0.003643  -0.038366  -0.000087  -0.000071  -0.000007
    11  H    0.000015  -0.003099   0.002551   0.000077   0.000071  -0.000001
    12  H    0.000864   0.000000  -0.000067   0.000000   0.000000   0.000000
    13  H    0.001039   0.000000   0.000025   0.000000   0.000000   0.000000
    14  C   -0.033266   0.000221  -0.040232   0.000016   0.000009  -0.000017
    15  C    0.000297  -0.043540  -0.032092  -0.000282   0.000819   0.000086
    16  H    0.000002   0.396472   0.002952  -0.025175  -0.024646   0.000002
    17  C    0.379544   0.003293   0.560798   0.000016   0.000036   0.002336
    18  C    0.002237   0.322224   0.569683  -0.039103  -0.037035  -0.005002
    19  H    0.482279  -0.000120  -0.032162   0.000001   0.000001  -0.000010
    20  C   -0.000120   5.110789  -0.047787   0.391484   0.391605  -0.000353
    21  C   -0.032162  -0.047787   4.905290  -0.002689  -0.003826  -0.039402
    22  H    0.000001   0.391484  -0.002689   0.523398  -0.030838   0.001734
    23  H    0.000001   0.391605  -0.003826  -0.030838   0.515491  -0.001890
    24  H   -0.000010  -0.000353  -0.039402   0.001734  -0.001890   0.480684
    25  H    0.002730   0.000062  -0.048631  -0.000003   0.000091  -0.032326
    26  C   -0.002305  -0.009121   0.329523  -0.000473  -0.002162   0.418279
    27  N    0.000160  -0.001285  -0.052607  -0.000181   0.004413  -0.045593
    28  H    0.000073  -0.000062  -0.000594   0.000011  -0.000224   0.003182
              25         26         27         28
     1  H   -0.000006  -0.000090   0.003389   0.000072
     2  C   -0.000107   0.004775  -0.115878  -0.000397
     3  H    0.000041  -0.000172   0.000448  -0.000012
     4  H    0.000002   0.000029   0.005937   0.000718
     5  C   -0.001005  -0.027979   0.271337  -0.017309
     6  O    0.001588   0.008384  -0.105946   0.002375
     7  H    0.000000   0.000001   0.000000   0.000000
     8  H    0.000000   0.000008   0.000000   0.000000
     9  C   -0.000010  -0.000124   0.000001   0.000001
    10  C   -0.000014   0.000157   0.000034  -0.000035
    11  H    0.000002  -0.000116   0.000001   0.000001
    12  H   -0.000002   0.000003   0.000000   0.000000
    13  H    0.000001  -0.000003   0.000000   0.000000
    14  C    0.000231   0.002625  -0.000088  -0.000005
    15  C   -0.000070   0.003342  -0.000147  -0.000071
    16  H    0.000002   0.000180   0.000056   0.000001
    17  C   -0.003463  -0.042503  -0.002104   0.002095
    18  C    0.003403  -0.047531  -0.000458   0.001328
    19  H    0.002730  -0.002305   0.000160   0.000073
    20  C    0.000062  -0.009121  -0.001285  -0.000062
    21  C   -0.048631   0.329523  -0.052607  -0.000594
    22  H   -0.000003  -0.000473  -0.000181   0.000011
    23  H    0.000091  -0.002162   0.004413  -0.000224
    24  H   -0.032326   0.418279  -0.045593   0.003182
    25  H    0.522926   0.419350  -0.049815   0.001221
    26  C    0.419350   4.899429   0.171860  -0.021387
    27  N   -0.049815   0.171860   7.403445   0.317554
    28  H    0.001221  -0.021387   0.317554   0.327065
 Mulliken charges:
               1
     1  H    0.211282
     2  C   -0.581302
     3  H    0.199513
     4  H    0.169946
     5  C    0.747721
     6  O   -0.609360
     7  H    0.174648
     8  H    0.197692
     9  C   -0.506308
    10  C   -0.225935
    11  H    0.197732
    12  H    0.179767
    13  H    0.174808
    14  C    0.042083
    15  C   -0.224135
    16  H    0.173577
    17  C   -0.243023
    18  C    0.033043
    19  H    0.197373
    20  C   -0.514316
    21  C   -0.039744
    22  H    0.182091
    23  H    0.187718
    24  H    0.215441
    25  H    0.183802
    26  C   -0.103980
    27  N   -0.804532
    28  H    0.384399
 Sum of Mulliken charges =   0.00000
 Mulliken charges with hydrogens summed into heavy atoms:
               1
     2  C   -0.000561
     5  C    0.747721
     6  O   -0.609360
     9  C    0.022915
    10  C   -0.028243
    14  C    0.042083
    15  C   -0.026403
    17  C   -0.045650
    18  C    0.033043
    20  C    0.029070
    21  C   -0.039744
    26  C    0.295263
    27  N   -0.420133
 DipInt: DoE/N= T F RetVal/Mat= T F Init=T NMatP=  1 IDeriv=0 Min/MaxMlt=  0  4
 Entering OneElI...
 OneElI was handed  2147351220 working-precision words.
 Multipole integrals L=0 to 4 MinM= 0 MaxM= 0.
 Requested accuracy = 0.1000D-12
 PrtBox:  NBox=     1 Levels=  1 BoxLen=   35.86 SMaxX=       18.05
          Shift=            9.171750            5.151660            2.936665
 Box      1 Number                   0 centers from      1 to     82:
 ShPair: Thresh= 1.00D-13 NBox=     1 BxSize= 3.59D+01 RnKept= 1.83D+01
         NSMCal=                 3403 NSMKep=                2937
 PrsmSu:  NPrtUS=   1 ThrOK=F IAlg=1 NPAlg=1 LenDen=           0.
 Prism:   IPart=     0 DynPar=F LinDyn=F Incr=          29.
 PRISM was handed  2147102940 working-precision words and  2937 shell-pairs
 IPart=  0 NShTot=        2937 NBatch=          46 AvBLen=        63.8
 PrSmSu:  NxtVal=             30.
 Electronic moments (au):
        -96.00000000          0.99534869         -0.33117593          1.15755062
      -2396.73150567       -612.93885583       -227.21324778          0.72894621
         -7.27410949         -0.18954105       1623.68453545       -770.23171554
        -59.11853449      -1213.35573919       2477.47515385      -1000.67465604
        630.14777612        102.74600983        -74.31113874       -324.54697038
    -110594.07278437     -11605.79240770      -1758.62623982       3001.97581913
       2234.83628394       2404.77332862         47.17493539        805.17177047
        177.45972186     -12500.72615270      -7550.53776566      -1092.49727639
       1180.85496450        -27.49436069       -682.88707250
 Electronic spatial extent (au):  <R**2>=           3236.8836
 DipInt: DoE/N= F T RetVal/Mat= T F Init=T NMatP=  1 IDeriv=0 Min/MaxMlt=  0  4
 Nuclear    moments (au):
         96.00000000          0.00000000          0.00000000          0.00000000
       2333.24331563        558.79926741        167.26017942          0.00000000
          0.00004078         -0.00001997      -1562.94913545        769.22841402
         59.24768481       1207.24930005      -2488.73571346       1072.52200553
       -638.15462180       -106.39015846         75.10072480        336.03686046
     101912.06706214       9451.22501886        963.26963553      -2961.26627891
      -2578.87769372      -2351.56387309        -27.23584754       -821.15383718
       -187.65552856      10786.38559390       5895.47044340        596.12590385
      -1182.92361753         44.69797346        678.36721869
 Total      moments (au):
          0.00000000          0.99534869         -0.33117593          1.15755062
        -63.48819004        -54.13958842        -59.95306835          0.72894621
         -7.27406871         -0.18956102         60.73540000         -1.00330152
          0.12915032         -6.10643914        -11.26055961         71.84734949
         -8.00684568         -3.64414862          0.78958606         11.48989008
      -8682.00572223      -2154.56738884       -795.35660428         40.70954022
       -344.04140977         53.20945553         19.93908785        -15.98206672
        -10.19580670      -1714.34055880      -1655.06732226       -496.37137254
         -2.06865303         17.20361277         -4.51985381
 Traceless Quadrup. (au):
         -4.29457444          5.05402718         -0.75945275          0.72894621
         -7.27406871         -0.18956102
 Charge=              0.0000 electrons
 Dipole moment (field-independent basis, Debye):
    X=              2.5299    Y=             -0.8418    Z=              2.9422  Tot=              3.9706
 Quadrupole moment (field-independent basis, Debye-Ang):
   XX=            -85.3938   YY=            -72.8196   ZZ=            -80.6389
   XY=              0.9805   XZ=             -9.7839   YZ=             -0.2550
 Traceless Quadrupole moment (field-independent basis, Debye-Ang):
   XX=             -5.7763   YY=              6.7978   ZZ=             -1.0215
   XY=              0.9805   XZ=             -9.7839   YZ=             -0.2550
 Octapole moment (field-independent basis, Debye-Ang**2):
  XXX=             43.2291  YYY=             -0.7141  ZZZ=              0.0919  XYY=             -4.3463
  XXY=             -8.0148  XXZ=             51.1382  XZZ=             -5.6990  YZZ=             -2.5938
  YYZ=              0.5620  XYZ=              8.1781
 Hexadecapole moment (field-independent basis, Debye-Ang**3):
 XXXX=          -3270.0595 YYYY=           -811.5133 ZZZZ=           -299.5694 XXXY=             15.3332
 XXXZ=           -129.5825 YYYX=             20.0412 YYYZ=              7.5100 ZZZX=             -6.0196
 ZZZY=             -3.8402 XXYY=           -645.7028 XXZZ=           -623.3777 YYZZ=           -186.9572
 XXYZ=             -0.7792 YYXZ=              6.4797 ZZXY=             -1.7024
 N-N= 7.636841713632D+02 E-N=-2.822267440786D+03  KE= 5.540350669900D+02
 Entering OneElI...
 OneElI was handed  2147375720 working-precision words.
 Calculate electrostatic properties
    NBasis =   225  MinDer = 0  MaxDer = 0
    NGrid  =    28  NMatD  =   1
 Requested accuracy = 0.1000D-12
 PrtBox:  NBox=     1 Levels=  1 BoxLen=   29.89 SMaxX=       18.05
          Shift=            9.171750            5.151660            2.936665
 Box      1 Number                   0 centers from      1 to     82:
 ShPair: Thresh= 1.00D-13 NBox=     1 BxSize= 2.99D+01 RnKept= 1.67D+01
         NSMCal=                 3403 NSMKep=                2686
 PrsmSu:  NPrtUS=   4 ThrOK=T IAlg=1 NPAlg=1 LenDen=           0.
 Prism:   IPart=     0 DynPar=F LinDyn=F Incr=         188.
 PRISM was handed   536725846 working-precision words and  2686 shell-pairs
 PRISM was handed   536725846 working-precision words and  2686 shell-pairs
 PRISM was handed   536725846 working-precision words and  2686 shell-pairs
 PRISM was handed   536725846 working-precision words and  2686 shell-pairs
 IPart=  0 NShTot=       19236 NBatch=         687 AvBLen=        28.0
 IPart=  3 NShTot=       18368 NBatch=         656 AvBLen=        28.0
 IPart=  2 NShTot=       18676 NBatch=         667 AvBLen=        28.0
 IPart=  1 NShTot=       18928 NBatch=         676 AvBLen=        28.0
 PrSmSu:  NxtVal=            753.
 --------------------------------------------------------
       Center         ----      EFG at Nuclei      ----
                      3XX-RR        3YY-RR        3ZZ-RR
 --------------------------------------------------------
     1   Atom       -0.178969      0.021841      0.157127
     2   Atom        0.015187      0.023839     -0.039026
     3   Atom        0.129751     -0.283818      0.154067
     4   Atom        0.031961      0.148525     -0.180486
     5   Atom        0.172591     -0.504253      0.331662
     6   Atom        1.143694     -0.767887     -0.375807
     7   Atom       -0.201125      0.111048      0.090077
     8   Atom       -0.257218      0.134865      0.122353
     9   Atom       -0.013869     -0.010946      0.024814
    10   Atom        0.087061      0.174390     -0.261450
    11   Atom        0.117180     -0.250287      0.133107
    12   Atom        0.139890      0.101275     -0.241165
    13   Atom        0.097843     -0.118743      0.020900
    14   Atom        0.123667      0.143590     -0.267257
    15   Atom        0.151173      0.111140     -0.262313
    16   Atom        0.073772     -0.168652      0.094880
    17   Atom        0.155913      0.092255     -0.248168
    18   Atom        0.138499      0.123596     -0.262095
    19   Atom        0.116561     -0.247425      0.130864
    20   Atom        0.014808     -0.038872      0.024064
    21   Atom        0.083215      0.174775     -0.257990
    22   Atom        0.125579      0.133891     -0.259470
    23   Atom       -0.170658      0.134952      0.035706
    24   Atom        0.097764     -0.087750     -0.010014
    25   Atom        0.149141     -0.169665      0.020524
    26   Atom       -0.058704      0.167053     -0.108349
    27   Atom       -0.472168      0.889855     -0.417687
    28   Atom        0.085396      0.201590     -0.286985
 --------------------------------------------------------
                        XY            XZ            YZ
 --------------------------------------------------------
     1   Atom        0.217585     -0.003743      0.007071
     2   Atom       -0.018234      0.032769     -0.001329
     3   Atom       -0.114733      0.004324     -0.004597
     4   Atom       -0.047283     -0.196703     -0.075716
     5   Atom        0.001493     -0.004038     -0.194120
     6   Atom        0.185626     -0.990838     -0.079475
     7   Atom       -0.118535     -0.164690     -0.057357
     8   Atom       -0.083100     -0.151589     -0.034947
     9   Atom        0.039224     -0.002569      0.006235
    10   Atom       -0.049910      0.113809      0.097822
    11   Atom       -0.117980     -0.044928     -0.132785
    12   Atom        0.033706      0.076779     -0.149470
    13   Atom       -0.120422      0.088613      0.198119
    14   Atom        0.014958      0.144840      0.116033
    15   Atom       -0.056723      0.133012      0.082594
    16   Atom       -0.157063     -0.077804     -0.151406
    17   Atom       -0.053900      0.128665      0.079051
    18   Atom        0.007236      0.146684      0.105588
    19   Atom       -0.113748     -0.044837     -0.134258
    20   Atom        0.044623     -0.002067     -0.003380
    21   Atom       -0.054230      0.086741      0.091749
    22   Atom        0.029073     -0.119816      0.086494
    23   Atom       -0.074884      0.204120      0.048854
    24   Atom        0.119249     -0.090071      0.202648
    25   Atom        0.004375      0.010074     -0.209790
    26   Atom       -0.070839      0.194104      0.009740
    27   Atom        0.061742      0.045412      0.368938
    28   Atom        0.077242     -0.206017      0.186429
 --------------------------------------------------------


 ---------------------------------------------------------------------------------
              Nuclear Quadrupole Coupling Constant in Principal Axis System
 ---------------------------------------------------------------------------------

       Atom             a.u.   MegaHertz   Gauss  10(-4) cm-1        Axes

              Baa    -0.5294     2.543     0.907     0.848 -0.4640 -0.2039  0.8620
    27 N(14)  Bbb    -0.4608     2.213     0.790     0.738  0.8845 -0.1601  0.4382
              Bcc     0.9902    -4.756    -1.697    -1.586  0.0487  0.9658  0.2547
 

 ---------------------------------------------------------------------------------

 No NMR shielding tensors so no spin-rotation constants.
 Leave Link  601 at Wed Nov 29 20:38:52 2017, MaxMem=  2147483648 cpu:         0.4
 FitSet:  NAtFit=    28 NAtPot=    28 NAtFrz=     0 MDM=    32 TotChg=   0.00000
 Merz-Kollman atomic radii used.
 Atom Element Radius
    1     1    1.20
    2     6    1.50
    3     1    1.20
    4     1    1.20
    5     6    1.50
    6     8    1.40
    7     1    1.20
    8     1    1.20
    9     6    1.50
   10     6    1.50
   11     1    1.20
   12     1    1.20
   13     1    1.20
   14     6    1.50
   15     6    1.50
   16     1    1.20
   17     6    1.50
   18     6    1.50
   19     1    1.20
   20     6    1.50
   21     6    1.50
   22     1    1.20
   23     1    1.20
   24     1    1.20
   25     1    1.20
   26     6    1.50
   27     7    1.50
   28     1    1.20
 Generate VDW surfaces: Layer= 4 Dens= 6 Start= 1.400 Inc= 0.200

 **********************************************************************

            Electrostatic Properties Using The SCF Density

 **********************************************************************

       Atomic Center    1 is at  -4.853481 -0.145682  1.274547
       Atomic Center    2 is at  -3.943168 -0.728487  1.298531
       Atomic Center    3 is at  -4.217029 -1.778713  1.287837
       Atomic Center    4 is at  -3.402922 -0.521692  2.215042
       Atomic Center    5 is at  -3.136166 -0.422072  0.053915
       Atomic Center    6 is at  -3.662539 -0.203451 -1.003403
       Atomic Center    7 is at   4.696907 -1.576865  0.518933
       Atomic Center    8 is at   4.092237  0.727460  0.809500
       Atomic Center    9 is at   3.753044 -1.894522  0.091414
       Atomic Center   10 is at   3.096218  0.520462  0.458198
       Atomic Center   11 is at   2.460171  2.535931  0.721283
       Atomic Center   12 is at   3.951795 -2.270584 -0.907946
       Atomic Center   13 is at   3.383346 -2.726141  0.683778
       Atomic Center   14 is at   2.757099 -0.758565  0.058782
       Atomic Center   15 is at   2.164879  1.549530  0.408294
       Atomic Center   16 is at   0.331763  3.388831  0.320695
       Atomic Center   17 is at   1.454550 -0.970570 -0.387769
       Atomic Center   18 is at   0.870824  1.339751 -0.036330
       Atomic Center   19 is at   1.168456 -1.959117 -0.708084
       Atomic Center   20 is at  -0.109704  2.490042 -0.093079
       Atomic Center   21 is at   0.514315  0.044452 -0.440705
       Atomic Center   22 is at  -0.403764  2.709764 -1.115347
       Atomic Center   23 is at  -1.015108  2.274368  0.462702
       Atomic Center   24 is at  -1.278472  0.500698 -1.554016
       Atomic Center   25 is at  -0.872603 -1.188363 -1.506623
       Atomic Center   26 is at  -0.886384 -0.277824 -0.916807
       Atomic Center   27 is at  -1.792523 -0.424459  0.211574
       Atomic Center   28 is at  -1.406365 -0.724261  1.077242
      ESP Fit Center   29 is at  -5.070889  0.230880  2.897302
      ESP Fit Center   30 is at  -5.288297 -0.145682  2.897302
      ESP Fit Center   31 is at  -4.853481  0.694318  2.729470
      ESP Fit Center   32 is at  -5.273481  0.581779  2.729470
      ESP Fit Center   33 is at  -5.580942  0.274318  2.729470
      ESP Fit Center   34 is at  -5.693481 -0.145682  2.729470
      ESP Fit Center   35 is at  -5.580942 -0.565682  2.729470
      ESP Fit Center   36 is at  -4.743872  1.037190  2.462486
      ESP Fit Center   37 is at  -5.178576  0.996908  2.462486
      ESP Fit Center   38 is at  -5.569374  0.802314  2.462486
      ESP Fit Center   39 is at  -5.863487  0.479687  2.462486
      ESP Fit Center   40 is at  -6.021193  0.072601  2.462486
      ESP Fit Center   41 is at  -6.021193 -0.363965  2.462486
      ESP Fit Center   42 is at  -5.863487 -0.771052  2.462486
      ESP Fit Center   43 is at  -4.321938  1.208667  2.114547
      ESP Fit Center   44 is at  -4.744754  1.305172  2.114547
      ESP Fit Center   45 is at  -5.177232  1.272763  2.114547
      ESP Fit Center   46 is at  -5.580942  1.114318  2.114547
      ESP Fit Center   47 is at  -5.920015  0.843917  2.114547
      ESP Fit Center   48 is at  -6.164321  0.485585  2.114547
      ESP Fit Center   49 is at  -6.292153  0.071163  2.114547
      ESP Fit Center   50 is at  -6.292153 -0.362527  2.114547
      ESP Fit Center   51 is at  -6.164321 -0.776949  2.114547
      ESP Fit Center   52 is at  -5.920015 -1.135281  2.114547
      ESP Fit Center   53 is at  -4.433481  1.421779  1.709363
      ESP Fit Center   54 is at  -4.853481  1.477073  1.709363
      ESP Fit Center   55 is at  -5.273481  1.421779  1.709363
      ESP Fit Center   56 is at  -5.664859  1.259665  1.709363
      ESP Fit Center   57 is at  -6.000942  1.001779  1.709363
      ESP Fit Center   58 is at  -6.258828  0.665696  1.709363
      ESP Fit Center   59 is at  -6.420942  0.274318  1.709363
      ESP Fit Center   60 is at  -6.476236 -0.145682  1.709363
      ESP Fit Center   61 is at  -6.420942 -0.565682  1.709363
      ESP Fit Center   62 is at  -6.258828 -0.957060  1.709363
      ESP Fit Center   63 is at  -6.000942 -1.293143  1.709363
      ESP Fit Center   64 is at  -4.334332  1.452093  1.274547
      ESP Fit Center   65 is at  -4.747993  1.531003  1.274547
      ESP Fit Center   66 is at  -5.168282  1.504560  1.274547
      ESP Fit Center   67 is at  -5.568790  1.374427  1.274547
      ESP Fit Center   68 is at  -5.924353  1.148780  1.274547
      ESP Fit Center   69 is at  -6.212630  0.841797  1.274547
      ESP Fit Center   70 is at  -6.415505  0.472767  1.274547
      ESP Fit Center   71 is at  -6.520234  0.064878  1.274547
      ESP Fit Center   72 is at  -6.520234 -0.356242  1.274547
      ESP Fit Center   73 is at  -6.415505 -0.764131  1.274547
      ESP Fit Center   74 is at  -6.212630 -1.133161  1.274547
      ESP Fit Center   75 is at  -5.924353 -1.440144  1.274547
      ESP Fit Center   76 is at  -4.433481  1.421779  0.839731
      ESP Fit Center   77 is at  -4.853481  1.477073  0.839731
      ESP Fit Center   78 is at  -5.273481  1.421779  0.839731
      ESP Fit Center   79 is at  -5.664859  1.259665  0.839731
      ESP Fit Center   80 is at  -6.000942  1.001779  0.839731
      ESP Fit Center   81 is at  -6.258828  0.665696  0.839731
      ESP Fit Center   82 is at  -6.420942  0.274318  0.839731
      ESP Fit Center   83 is at  -6.476236 -0.145682  0.839731
      ESP Fit Center   84 is at  -6.420942 -0.565682  0.839731
      ESP Fit Center   85 is at  -6.258828 -0.957060  0.839731
      ESP Fit Center   86 is at  -6.000942 -1.293143  0.839731
      ESP Fit Center   87 is at  -4.744754  1.305172  0.434547
      ESP Fit Center   88 is at  -5.177232  1.272763  0.434547
      ESP Fit Center   89 is at  -5.580942  1.114318  0.434547
      ESP Fit Center   90 is at  -5.920015  0.843917  0.434547
      ESP Fit Center   91 is at  -6.164321  0.485585  0.434547
      ESP Fit Center   92 is at  -6.292153  0.071163  0.434547
      ESP Fit Center   93 is at  -6.292153 -0.362527  0.434547
      ESP Fit Center   94 is at  -6.164321 -0.776949  0.434547
      ESP Fit Center   95 is at  -5.920015 -1.135281  0.434547
      ESP Fit Center   96 is at  -4.743872  1.037190  0.086608
      ESP Fit Center   97 is at  -5.178576  0.996908  0.086608
      ESP Fit Center   98 is at  -5.569374  0.802314  0.086608
      ESP Fit Center   99 is at  -5.863487  0.479687  0.086608
      ESP Fit Center  100 is at  -6.021193  0.072601  0.086608
      ESP Fit Center  101 is at  -6.021193 -0.363965  0.086608
      ESP Fit Center  102 is at  -5.863487 -0.771052  0.086608
      ESP Fit Center  103 is at  -5.273481  0.581779 -0.180376
      ESP Fit Center  104 is at  -5.580942  0.274318 -0.180376
      ESP Fit Center  105 is at  -5.693481 -0.145682 -0.180376
      ESP Fit Center  106 is at  -5.580942 -0.565682 -0.180376
      ESP Fit Center  107 is at  -4.746803 -0.728487  3.238678
      ESP Fit Center  108 is at  -4.639136 -1.130305  3.238678
      ESP Fit Center  109 is at  -4.935114 -0.114300  3.044617
      ESP Fit Center  110 is at  -5.090000 -0.514107  3.044617
      ESP Fit Center  111 is at  -5.090000 -0.942867  3.044617
      ESP Fit Center  112 is at  -4.935114 -1.342674  3.044617
      ESP Fit Center  113 is at  -4.646260 -1.659532  3.044617
      ESP Fit Center  114 is at  -4.262450 -1.850647  3.044617
      ESP Fit Center  115 is at  -4.560028  0.622248  2.783455
      ESP Fit Center  116 is at  -5.428092 -0.728487  2.783455
      ESP Fit Center  117 is at  -5.367942 -1.146839  2.783455
      ESP Fit Center  118 is at  -5.192366 -1.531298  2.783455
      ESP Fit Center  119 is at  -4.153635  1.004868  2.465228
      ESP Fit Center  120 is at  -5.638516 -1.146353  2.465228
      ESP Fit Center  121 is at  -5.489251 -1.539934  2.465228
      ESP Fit Center  122 is at  -2.951278 -2.165488  2.465228
      ESP Fit Center  123 is at  -3.838131  1.208815  2.102166
      ESP Fit Center  124 is at  -5.781754 -1.347979  2.102166
      ESP Fit Center  125 is at  -2.687143 -2.207194  2.102166
      ESP Fit Center  126 is at  -2.398630 -1.902614  2.102166
      ESP Fit Center  127 is at  -2.853688  1.019422  1.708221
      ESP Fit Center  128 is at  -3.227841  1.202953  1.708221
      ESP Fit Center  129 is at  -3.631280  1.307411  1.708221
      ESP Fit Center  130 is at  -4.047487  1.328518  1.708221
      ESP Fit Center  131 is at  -2.524138 -2.221306  1.708221
      ESP Fit Center  132 is at  -3.533478  1.331162  1.298531
      ESP Fit Center  133 is at  -3.943168  1.371513  1.298531
      ESP Fit Center  134 is at  -5.883315 -1.532122  1.298531
      ESP Fit Center  135 is at  -2.458244 -2.213411  1.298531
      ESP Fit Center  136 is at  -4.047487  1.328518  0.888841
      ESP Fit Center  137 is at  -5.781754 -1.347979  0.494896
      ESP Fit Center  138 is at  -5.638516 -1.146353  0.131834
      ESP Fit Center  139 is at  -5.489251 -1.539934  0.131834
      ESP Fit Center  140 is at  -5.367942 -1.146839 -0.186393
      ESP Fit Center  141 is at  -5.192366 -1.531298 -0.186393
      ESP Fit Center  142 is at  -4.434437 -2.155275  2.910592
      ESP Fit Center  143 is at  -3.999621 -2.155275  2.910592
      ESP Fit Center  144 is at  -5.057029 -1.778713  2.742760
      ESP Fit Center  145 is at  -4.944490 -2.198713  2.742760
      ESP Fit Center  146 is at  -4.637029 -2.506174  2.742760
      ESP Fit Center  147 is at  -4.217029 -2.618713  2.742760
      ESP Fit Center  148 is at  -3.797029 -2.506174  2.742760
      ESP Fit Center  149 is at  -3.489568 -2.198713  2.742760
      ESP Fit Center  150 is at  -5.384741 -1.996996  2.475776
      ESP Fit Center  151 is at  -5.227035 -2.404083  2.475776
      ESP Fit Center  152 is at  -4.932922 -2.726709  2.475776
      ESP Fit Center  153 is at  -4.542124 -2.921304  2.475776
      ESP Fit Center  154 is at  -4.107420 -2.961585  2.475776
      ESP Fit Center  155 is at  -3.687519 -2.842113  2.475776
      ESP Fit Center  156 is at  -3.339131 -2.579023  2.475776
      ESP Fit Center  157 is at  -5.655701 -1.995558  2.127837
      ESP Fit Center  158 is at  -5.527869 -2.409980  2.127837
      ESP Fit Center  159 is at  -5.283563 -2.768312  2.127837
      ESP Fit Center  160 is at  -4.944490 -3.038713  2.127837
      ESP Fit Center  161 is at  -4.540780 -3.197158  2.127837
      ESP Fit Center  162 is at  -4.108302 -3.229568  2.127837
      ESP Fit Center  163 is at  -3.685486 -3.133062  2.127837
      ESP Fit Center  164 is at  -3.309899 -2.916217  2.127837
      ESP Fit Center  165 is at  -3.014915 -2.598300  2.127837
      ESP Fit Center  166 is at  -5.839784 -1.778713  1.722653
      ESP Fit Center  167 is at  -5.784490 -2.198713  1.722653
      ESP Fit Center  168 is at  -5.622376 -2.590091  1.722653
      ESP Fit Center  169 is at  -5.364490 -2.926174  1.722653
      ESP Fit Center  170 is at  -5.028407 -3.184060  1.722653
      ESP Fit Center  171 is at  -4.637029 -3.346174  1.722653
      ESP Fit Center  172 is at  -4.217029 -3.401468  1.722653
      ESP Fit Center  173 is at  -3.797029 -3.346174  1.722653
      ESP Fit Center  174 is at  -3.405651 -3.184060  1.722653
      ESP Fit Center  175 is at  -3.069568 -2.926174  1.722653
      ESP Fit Center  176 is at  -2.811682 -2.590091  1.722653
      ESP Fit Center  177 is at  -5.883782 -1.568153  1.287837
      ESP Fit Center  178 is at  -5.883782 -1.989273  1.287837
      ESP Fit Center  179 is at  -5.779053 -2.397162  1.287837
      ESP Fit Center  180 is at  -5.576177 -2.766192  1.287837
      ESP Fit Center  181 is at  -5.287901 -3.073175  1.287837
      ESP Fit Center  182 is at  -4.932338 -3.298823  1.287837
      ESP Fit Center  183 is at  -4.531830 -3.428956  1.287837
      ESP Fit Center  184 is at  -4.111541 -3.455398  1.287837
      ESP Fit Center  185 is at  -3.697880 -3.376488  1.287837
      ESP Fit Center  186 is at  -3.316840 -3.197184  1.287837
      ESP Fit Center  187 is at  -2.992362 -2.928752  1.287837
      ESP Fit Center  188 is at  -2.744834 -2.588059  1.287837
      ESP Fit Center  189 is at  -5.839784 -1.778713  0.853021
      ESP Fit Center  190 is at  -5.784490 -2.198713  0.853021
      ESP Fit Center  191 is at  -5.622376 -2.590091  0.853021
      ESP Fit Center  192 is at  -5.364490 -2.926174  0.853021
      ESP Fit Center  193 is at  -5.028407 -3.184060  0.853021
      ESP Fit Center  194 is at  -4.637029 -3.346174  0.853021
      ESP Fit Center  195 is at  -4.217029 -3.401468  0.853021
      ESP Fit Center  196 is at  -3.797029 -3.346174  0.853021
      ESP Fit Center  197 is at  -3.405651 -3.184060  0.853021
      ESP Fit Center  198 is at  -3.069568 -2.926174  0.853021
      ESP Fit Center  199 is at  -2.811682 -2.590091  0.853021
      ESP Fit Center  200 is at  -5.655701 -1.995558  0.447837
      ESP Fit Center  201 is at  -5.527869 -2.409980  0.447837
      ESP Fit Center  202 is at  -5.283563 -2.768312  0.447837
      ESP Fit Center  203 is at  -4.944490 -3.038713  0.447837
      ESP Fit Center  204 is at  -4.540780 -3.197158  0.447837
      ESP Fit Center  205 is at  -4.108302 -3.229568  0.447837
      ESP Fit Center  206 is at  -3.685486 -3.133062  0.447837
      ESP Fit Center  207 is at  -3.309899 -2.916217  0.447837
      ESP Fit Center  208 is at  -3.014915 -2.598300  0.447837
      ESP Fit Center  209 is at  -5.384741 -1.996996  0.099898
      ESP Fit Center  210 is at  -5.227035 -2.404083  0.099898
      ESP Fit Center  211 is at  -4.932922 -2.726709  0.099898
      ESP Fit Center  212 is at  -4.542124 -2.921304  0.099898
      ESP Fit Center  213 is at  -4.107420 -2.961585  0.099898
      ESP Fit Center  214 is at  -3.687519 -2.842113  0.099898
      ESP Fit Center  215 is at  -3.339131 -2.579023  0.099898
      ESP Fit Center  216 is at  -5.057029 -1.778713 -0.167086
      ESP Fit Center  217 is at  -4.944490 -2.198713 -0.167086
      ESP Fit Center  218 is at  -4.637029 -2.506174 -0.167086
      ESP Fit Center  219 is at  -4.217029 -2.618713 -0.167086
      ESP Fit Center  220 is at  -3.797029 -2.506174 -0.167086
      ESP Fit Center  221 is at  -4.434437 -2.155275 -0.334918
      ESP Fit Center  222 is at  -3.402922 -0.521692  3.895042
      ESP Fit Center  223 is at  -2.968106 -0.521692  3.837797
      ESP Fit Center  224 is at  -3.185514 -0.145130  3.837797
      ESP Fit Center  225 is at  -3.620330 -0.145130  3.837797
      ESP Fit Center  226 is at  -3.837738 -0.521692  3.837797
      ESP Fit Center  227 is at  -3.620330 -0.898254  3.837797
      ESP Fit Center  228 is at  -3.185514 -0.898254  3.837797
      ESP Fit Center  229 is at  -2.562922 -0.521692  3.669965
      ESP Fit Center  230 is at  -2.675461 -0.101692  3.669965
      ESP Fit Center  231 is at  -2.982922  0.205769  3.669965
      ESP Fit Center  232 is at  -3.402922  0.318308  3.669965
      ESP Fit Center  233 is at  -3.822922  0.205769  3.669965
      ESP Fit Center  234 is at  -4.130383 -0.101692  3.669965
      ESP Fit Center  235 is at  -4.242922 -0.521692  3.669965
      ESP Fit Center  236 is at  -4.130383 -0.941692  3.669965
      ESP Fit Center  237 is at  -3.822922 -1.249153  3.669965
      ESP Fit Center  238 is at  -3.402922 -1.361692  3.669965
      ESP Fit Center  239 is at  -2.982922 -1.249153  3.669965
      ESP Fit Center  240 is at  -2.675461 -0.941692  3.669965
      ESP Fit Center  241 is at  -2.214983 -0.521692  3.402981
      ESP Fit Center  242 is at  -2.295201 -0.092559  3.402981
      ESP Fit Center  243 is at  -2.525024  0.278618  3.402981
      ESP Fit Center  244 is at  -2.873412  0.541708  3.402981
      ESP Fit Center  245 is at  -3.293313  0.661180  3.402981
      ESP Fit Center  246 is at  -3.728017  0.620899  3.402981
      ESP Fit Center  247 is at  -4.118815  0.426304  3.402981
      ESP Fit Center  248 is at  -4.412928  0.103677  3.402981
      ESP Fit Center  249 is at  -4.570634 -0.303409  3.402981
      ESP Fit Center  250 is at  -4.570634 -0.739975  3.402981
      ESP Fit Center  251 is at  -4.412928 -1.147062  3.402981
      ESP Fit Center  252 is at  -4.118815 -1.469688  3.402981
      ESP Fit Center  253 is at  -3.728017 -1.664283  3.402981
      ESP Fit Center  254 is at  -3.293313 -1.704564  3.402981
      ESP Fit Center  255 is at  -2.873412 -1.585092  3.402981
      ESP Fit Center  256 is at  -2.525024 -1.322002  3.402981
      ESP Fit Center  257 is at  -2.295201 -0.950825  3.402981
      ESP Fit Center  258 is at  -1.947999 -0.521692  3.055042
      ESP Fit Center  259 is at  -2.012637 -0.092846  3.055042
      ESP Fit Center  260 is at  -2.200808  0.297895  3.055042
      ESP Fit Center  261 is at  -2.495793  0.615812  3.055042
      ESP Fit Center  262 is at  -2.871379  0.832657  3.055042
      ESP Fit Center  263 is at  -3.294195  0.929162  3.055042
      ESP Fit Center  264 is at  -3.726673  0.896753  3.055042
      ESP Fit Center  265 is at  -4.130383  0.738308  3.055042
      ESP Fit Center  266 is at  -4.469456  0.467907  3.055042
      ESP Fit Center  267 is at  -3.726673 -1.940137  3.055042
      ESP Fit Center  268 is at  -3.294195 -1.972546  3.055042
      ESP Fit Center  269 is at  -2.871379 -1.876041  3.055042
      ESP Fit Center  270 is at  -2.495793 -1.659196  3.055042
      ESP Fit Center  271 is at  -2.200808 -1.341279  3.055042
      ESP Fit Center  272 is at  -2.012637 -0.950538  3.055042
      ESP Fit Center  273 is at  -1.835461 -0.101692  2.649858
      ESP Fit Center  274 is at  -1.997575  0.289686  2.649858
      ESP Fit Center  275 is at  -2.255461  0.625769  2.649858
      ESP Fit Center  276 is at  -2.591544  0.883655  2.649858
      ESP Fit Center  277 is at  -2.982922  1.045769  2.649858
      ESP Fit Center  278 is at  -3.402922  1.101063  2.649858
      ESP Fit Center  279 is at  -3.822922  1.045769  2.649858
      ESP Fit Center  280 is at  -4.214300  0.883655  2.649858
      ESP Fit Center  281 is at  -2.982922 -2.089153  2.649858
      ESP Fit Center  282 is at  -2.591544 -1.927039  2.649858
      ESP Fit Center  283 is at  -2.255461 -1.669153  2.649858
      ESP Fit Center  284 is at  -1.997575 -1.333070  2.649858
      ESP Fit Center  285 is at  -2.178255  0.628347  2.215042
      ESP Fit Center  286 is at  -2.502733  0.896779  2.215042
      ESP Fit Center  287 is at  -2.883773  1.076083  2.215042
      ESP Fit Center  288 is at  -3.297434  1.154993  2.215042
      ESP Fit Center  289 is at  -2.591544  0.883655  1.780226
      ESP Fit Center  290 is at  -2.925699  1.311283  1.220612
      ESP Fit Center  291 is at  -3.346633  1.311283  1.220612
      ESP Fit Center  292 is at  -2.617122  1.447357  0.857550
      ESP Fit Center  293 is at  -3.031129  1.515230  0.857550
      ESP Fit Center  294 is at  -3.450047  1.492516  0.857550
      ESP Fit Center  295 is at  -3.854288  1.380279  0.857550
      ESP Fit Center  296 is at  -2.824278  1.613826  0.463605
      ESP Fit Center  297 is at  -3.240486  1.634933  0.463605
      ESP Fit Center  298 is at  -3.652422  1.571827  0.463605
      ESP Fit Center  299 is at  -4.043223  1.427090  0.463605
      ESP Fit Center  300 is at  -2.824278 -2.457970  0.463605
      ESP Fit Center  301 is at  -2.726476  1.637577  0.053915
      ESP Fit Center  302 is at  -3.136166  1.677928  0.053915
      ESP Fit Center  303 is at  -3.545856  1.637577  0.053915
      ESP Fit Center  304 is at  -3.939801  1.518075  0.053915
      ESP Fit Center  305 is at  -4.302863  1.324014  0.053915
      ESP Fit Center  306 is at  -3.136166 -2.522072  0.053915
      ESP Fit Center  307 is at  -2.726476 -2.481721  0.053915
      ESP Fit Center  308 is at  -2.420839  1.509368 -0.355775
      ESP Fit Center  309 is at  -2.824278  1.613826 -0.355775
      ESP Fit Center  310 is at  -3.240486  1.634933 -0.355775
      ESP Fit Center  311 is at  -4.043223 -2.271234 -0.355775
      ESP Fit Center  312 is at  -3.652422 -2.415971 -0.355775
      ESP Fit Center  313 is at  -3.240486 -2.479078 -0.355775
      ESP Fit Center  314 is at  -2.824278 -2.457970 -0.355775
      ESP Fit Center  315 is at  -2.420839 -2.353512 -0.355775
      ESP Fit Center  316 is at  -2.617122  1.447357 -0.749720
      ESP Fit Center  317 is at  -3.854288 -2.224423 -0.749720
      ESP Fit Center  318 is at  -3.450047 -2.336661 -0.749720
      ESP Fit Center  319 is at  -3.031129 -2.359374 -0.749720
      ESP Fit Center  320 is at  -2.617122 -2.291501 -0.749720
      ESP Fit Center  321 is at  -3.346633 -2.155427 -1.112782
      ESP Fit Center  322 is at  -2.925699 -2.155427 -1.112782
      ESP Fit Center  323 is at  -2.516995 -2.054691 -1.112782
      ESP Fit Center  324 is at  -2.519306 -1.772807 -1.431009
      ESP Fit Center  325 is at  -4.385261  1.332411 -0.023403
      ESP Fit Center  326 is at  -4.744509  1.104426 -0.023403
      ESP Fit Center  327 is at  -3.662539  1.660620 -0.397730
      ESP Fit Center  328 is at  -4.077334  1.613884 -0.397730
      ESP Fit Center  329 is at  -4.471329  1.476019 -0.397730
      ESP Fit Center  330 is at  -4.824768  1.253938 -0.397730
      ESP Fit Center  331 is at  -5.119928  0.958778 -0.397730
[...]
 ! A20   A(9,14,17)            120.5798         -DE/DX =    0.0                 !
 ! A21   A(10,14,17)           117.5695         -DE/DX =    0.0                 !
 ! A22   A(10,15,11)           118.9925         -DE/DX =    0.0                 !
 ! A23   A(10,15,18)           121.7443         -DE/DX =    0.0                 !
 ! A24   A(11,15,18)           119.2629         -DE/DX =    0.0                 !
 ! A25   A(14,17,19)           118.8812         -DE/DX =    0.0                 !
 ! A26   A(14,17,21)           122.3836         -DE/DX =    0.0                 !
 ! A27   A(19,17,21)           118.7346         -DE/DX =    0.0                 !
 ! A28   A(15,18,20)           120.1856         -DE/DX =    0.0                 !
 ! A29   A(15,18,21)           118.0357         -DE/DX =    0.0                 !
 ! A30   A(20,18,21)           121.7743         -DE/DX =    0.0                 !
 ! A31   A(16,20,18)           110.6341         -DE/DX =    0.0                 !
 ! A32   A(16,20,22)           107.5734         -DE/DX =    0.0                 !
 ! A33   A(16,20,23)           108.0323         -DE/DX =    0.0                 !
 ! A34   A(18,20,22)           111.3863         -DE/DX =    0.0                 !
 ! A35   A(18,20,23)           111.7706         -DE/DX =    0.0                 !
 ! A36   A(22,20,23)           107.2568         -DE/DX =    0.0                 !
 ! A37   A(17,21,18)           119.5532         -DE/DX =    0.0                 !
 ! A38   A(17,21,26)           118.9596         -DE/DX =    0.0                 !
 ! A39   A(18,21,26)           121.4808         -DE/DX =    0.0                 !
 ! A40   A(21,26,24)           111.5942         -DE/DX =    0.0                 !
 ! A41   A(21,26,25)           109.7442         -DE/DX =    0.0                 !
 ! A42   A(21,26,27)           110.7214         -DE/DX =    0.0                 !
 ! A43   A(24,26,25)           106.7919         -DE/DX =    0.0                 !
 ! A44   A(24,26,27)           107.7143         -DE/DX =    0.0                 !
 ! A45   A(25,26,27)           110.1831         -DE/DX =    0.0                 !
 ! A46   A(5,27,26)            121.8789         -DE/DX =    0.0                 !
 ! A47   A(5,27,28)            119.1948         -DE/DX =    0.0                 !
 ! A48   A(26,27,28)           117.639          -DE/DX =    0.0                 !
 ! D1    D(1,2,5,6)            -35.4426         -DE/DX =    0.0                 !
 ! D2    D(1,2,5,27)           145.167          -DE/DX =    0.0                 !
 ! D3    D(3,2,5,6)             81.9462         -DE/DX =    0.0                 !
 ! D4    D(3,2,5,27)           -97.4443         -DE/DX =    0.0                 !
 ! D5    D(4,2,5,6)           -157.3816         -DE/DX =    0.0                 !
 ! D6    D(4,2,5,27)            23.228          -DE/DX =    0.0                 !
 ! D7    D(2,5,27,26)          173.8618         -DE/DX =    0.0                 !
 ! D8    D(2,5,27,28)            7.1291         -DE/DX =    0.0                 !
 ! D9    D(6,5,27,26)           -5.5235         -DE/DX =    0.0                 !
 ! D10   D(6,5,27,28)         -172.2561         -DE/DX =    0.0                 !
 ! D11   D(7,9,14,10)            3.8005         -DE/DX =    0.0                 !
 ! D12   D(7,9,14,17)         -176.5633         -DE/DX =    0.0                 !
 ! D13   D(12,9,14,10)        -116.2926         -DE/DX =    0.0                 !
 ! D14   D(12,9,14,17)          63.3436         -DE/DX =    0.0                 !
 ! D15   D(13,9,14,10)         124.0336         -DE/DX =    0.0                 !
 ! D16   D(13,9,14,17)         -56.3302         -DE/DX =    0.0                 !
 ! D17   D(8,10,14,9)           -0.322          -DE/DX =    0.0                 !
 ! D18   D(8,10,14,17)        -179.9686         -DE/DX =    0.0                 !
 ! D19   D(15,10,14,9)         179.4772         -DE/DX =    0.0                 !
 ! D20   D(15,10,14,17)         -0.1694         -DE/DX =    0.0                 !
 ! D21   D(8,10,15,11)           0.1103         -DE/DX =    0.0                 !
 ! D22   D(8,10,15,18)         179.9235         -DE/DX =    0.0                 !
 ! D23   D(14,10,15,11)       -179.6902         -DE/DX =    0.0                 !
 ! D24   D(14,10,15,18)          0.123          -DE/DX =    0.0                 !
 ! D25   D(9,14,17,19)           0.1055         -DE/DX =    0.0                 !
 ! D26   D(9,14,17,21)        -179.6126         -DE/DX =    0.0                 !
 ! D27   D(10,14,17,19)        179.7569         -DE/DX =    0.0                 !
 ! D28   D(10,14,17,21)          0.0388         -DE/DX =    0.0                 !
 ! D29   D(10,15,18,20)       -179.2012         -DE/DX =    0.0                 !
 ! D30   D(10,15,18,21)          0.0589         -DE/DX =    0.0                 !
 ! D31   D(11,15,18,20)          0.6115         -DE/DX =    0.0                 !
 ! D32   D(11,15,18,21)        179.8716         -DE/DX =    0.0                 !
 ! D33   D(14,17,21,18)          0.1409         -DE/DX =    0.0                 !
 ! D34   D(14,17,21,26)       -178.9559         -DE/DX =    0.0                 !
 ! D35   D(19,17,21,18)       -179.5775         -DE/DX =    0.0                 !
 ! D36   D(19,17,21,26)          1.3256         -DE/DX =    0.0                 !
 ! D37   D(15,18,20,16)         -4.5051         -DE/DX =    0.0                 !
 ! D38   D(15,18,20,22)        115.0952         -DE/DX =    0.0                 !
 ! D39   D(15,18,20,23)       -124.9402         -DE/DX =    0.0                 !
 ! D40   D(21,18,20,16)        176.2631         -DE/DX =    0.0                 !
 ! D41   D(21,18,20,22)        -64.1366         -DE/DX =    0.0                 !
 ! D42   D(21,18,20,23)         55.828          -DE/DX =    0.0                 !
 ! D43   D(15,18,21,17)         -0.1865         -DE/DX =    0.0                 !
 ! D44   D(15,18,21,26)        178.8869         -DE/DX =    0.0                 !
 ! D45   D(20,18,21,17)        179.0613         -DE/DX =    0.0                 !
 ! D46   D(20,18,21,26)         -1.8653         -DE/DX =    0.0                 !
 ! D47   D(17,21,26,24)       -139.5964         -DE/DX =    0.0                 !
 ! D48   D(17,21,26,25)        -21.4208         -DE/DX =    0.0                 !
 ! D49   D(17,21,26,27)        100.4297         -DE/DX =    0.0                 !
 ! D50   D(18,21,26,24)         41.3248         -DE/DX =    0.0                 !
 ! D51   D(18,21,26,25)        159.5005         -DE/DX =    0.0                 !
 ! D52   D(18,21,26,27)        -78.649          -DE/DX =    0.0                 !
 ! D53   D(21,26,27,5)         165.2906         -DE/DX =    0.0                 !
 ! D54   D(21,26,27,28)        -27.7798         -DE/DX =    0.0                 !
 ! D55   D(24,26,27,5)          43.021          -DE/DX =    0.0                 !
 ! D56   D(24,26,27,28)       -150.0493         -DE/DX =    0.0                 !
 ! D57   D(25,26,27,5)         -73.1169         -DE/DX =    0.0                 !
 ! D58   D(25,26,27,28)         93.8127         -DE/DX =    0.0                 !
 --------------------------------------------------------------------------------
 GradGradGradGradGradGradGradGradGradGradGradGradGradGradGradGradGradGrad

                          Input orientation:                          
 ---------------------------------------------------------------------
 Center     Atomic      Atomic             Coordinates (Angstroms)
 Number     Number       Type             X           Y           Z
 ---------------------------------------------------------------------
      1          1           0       -4.853481   -0.145682    1.274547
      2          6           0       -3.943168   -0.728487    1.298531
      3          1           0       -4.217029   -1.778713    1.287837
      4          1           0       -3.402922   -0.521692    2.215042
      5          6           0       -3.136166   -0.422072    0.053915
      6          8           0       -3.662539   -0.203451   -1.003403
      7          1           0        4.696907   -1.576865    0.518933
      8          1           0        4.092237    0.727460    0.809500
      9          6           0        3.753044   -1.894522    0.091414
     10          6           0        3.096218    0.520462    0.458198
     11          1           0        2.460171    2.535931    0.721283
     12          1           0        3.951795   -2.270584   -0.907946
     13          1           0        3.383346   -2.726141    0.683778
     14          6           0        2.757099   -0.758565    0.058782
     15          6           0        2.164879    1.549530    0.408294
     16          1           0        0.331763    3.388831    0.320695
     17          6           0        1.454550   -0.970570   -0.387769
     18          6           0        0.870824    1.339751   -0.036330
     19          1           0        1.168456   -1.959117   -0.708084
     20          6           0       -0.109704    2.490042   -0.093079
     21          6           0        0.514315    0.044452   -0.440705
     22          1           0       -0.403764    2.709764   -1.115347
     23          1           0       -1.015108    2.274368    0.462702
     24          1           0       -1.278472    0.500698   -1.554016
     25          1           0       -0.872603   -1.188363   -1.506623
     26          6           0       -0.886384   -0.277824   -0.916807
     27          7           0       -1.792523   -0.424459    0.211574
     28          1           0       -1.406365   -0.724261    1.077242
 ---------------------------------------------------------------------
                    Distance matrix (angstroms):
                    1          2          3          4          5
     1  H    0.000000
     2  C    1.081160   0.000000
     3  H    1.752723   1.085398   0.000000
     4  H    1.769191   1.083800   1.761415   0.000000
     5  C    2.124972   1.514665   2.128686   2.179806   0.000000
     6  O    2.571135   2.377670   2.835258   3.244544   1.201160
     7  H    9.686545   8.716560   8.949313   8.342506   7.931382
     8  H    9.000251   8.180872   8.692158   7.727441   7.358134
     9  C    8.861745   7.877084   8.060205   7.589618   7.044908
    10  C    8.019220   7.198541   7.710907   6.812592   6.316203
    11  H    7.809395   7.210575   7.970078   6.779103   6.365073
    12  H    9.317262   8.341286   8.473080   8.179458   7.387920
    13  H    8.651768   7.618816   7.682982   7.297794   6.943306
    14  C    7.731406   6.814063   7.154701   6.530806   5.902866
    15  C    7.271968   6.579523   7.251176   6.209244   5.666911
    16  H    6.347391   6.015273   6.952006   5.729626   5.159524
    17  C    6.575332   5.660174   5.968883   5.529118   4.644417
    18  C    6.057440   5.406846   6.112650   5.176732   4.378143
    19  H    6.594171   5.627580   5.746277   5.613230   4.633888
    20  C    5.596504   5.195282   6.082706   5.024266   4.202557
    21  C    5.638393   4.846806   5.356996   4.766367   3.713261
    22  H    5.802167   5.493247   6.361031   5.525283   4.317591
    23  H    4.609647   4.276597   5.230737   4.073120   3.454965
    24  H    4.604266   4.092496   4.680487   4.445713   2.624495
    25  H    4.966838   4.184345   4.398034   4.549479   2.854155
    26  C    4.534022   3.801940   4.266886   4.025036   2.454512
    27  N    3.252244   2.428823   2.978351   2.572299   1.352863
    28  H    3.500899   2.546440   3.009327   2.306916   2.032419
                    6          7          8          9         10
     6  O    0.000000
     7  H    8.607213   0.000000
     8  H    8.018090   2.399993   0.000000
     9  C    7.684349   1.083769   2.739615   0.000000
    10  C    6.952778   2.639067   1.076250   2.529446   0.000000
    11  H    6.925773   4.686046   2.437620   4.658022   2.129762
    12  H    7.890515   1.752832   3.457978   1.086115   3.223088
    13  H    7.671704   1.753126   3.527845   1.085892   3.267072
    14  C    6.530554   2.155043   2.134114   1.511082   1.382188
    15  C    6.246970   4.024643   2.133418   3.805808   1.388835
    16  H    5.532827   6.614523   4.632817   6.298536   3.986058
    17  C    5.210765   3.420904   3.357700   2.523168   2.373586
    18  C    4.885497   4.842920   3.386419   4.334055   2.422431
    19  H    5.148601   3.755217   4.250794   2.706190   3.350342
    20  C    4.550410   6.325962   4.645175   5.846303   3.802774
    21  C    4.221871   4.587336   3.851109   3.812104   2.775038
    22  H    4.372524   6.860241   5.277176   6.319397   4.418027
    23  H    3.911258   6.889287   5.347725   6.344507   4.469811
    24  H    2.546130   6.657217   5.872150   5.810393   4.815320
    25  H    3.001171   5.939129   5.803830   4.944592   4.746804
    26  C    2.778501   5.909484   5.364457   5.015428   4.288242
    27  N    2.240976   6.598122   6.026179   5.738365   4.985327
    28  H    3.112981   6.187776   5.693312   5.381530   4.712304
                   11         12         13         14         15
    11  H    0.000000
    12  H    5.289794   0.000000
    13  H    5.342571   1.750500   0.000000
    14  C    3.373541   2.155937   2.157350   0.000000
    15  C    1.076172   4.418012   4.454427   2.408357   0.000000
    16  H    2.327666   6.829580   6.843747   4.811626   2.598272
    17  C    3.812718   2.863015   2.819662   1.393193   2.736638
    18  C    2.128579   4.825621   4.833508   2.823121   1.384296
    19  H    4.890509   2.807834   2.726049   2.133822   3.814415
    20  C    2.696210   6.310574   6.325620   4.335328   2.511905
    21  C    3.368091   4.170608   4.143910   2.434010   2.389649
    22  H    3.406692   6.619500   6.864992   4.837245   3.203990
    23  H    3.494688   6.870618   6.663360   4.857096   3.262004
    24  H    4.826656   5.954251   6.095306   4.524676   4.099680
    25  H    5.471866   4.980405   5.027496   3.976174   4.515447
    26  C    4.669046   5.232509   5.175589   3.802349   3.795434
    27  N    5.206642   6.136668   5.684218   4.564431   4.426778
    28  H    5.070075   5.919625   5.206118   4.286359   4.286187
                   16         17         18         19         20
    16  H    0.000000
    17  C    4.557077   0.000000
    18  C    2.148670   2.408699   0.000000
    19  H    5.509899   1.077811   3.379699   0.000000
    20  C    1.083478   3.809143   1.512556   4.669790   0.000000
    21  C    3.434811   1.384599   1.403003   2.124542   2.547774
    22  H    1.750528   4.186593   2.160043   4.943297   1.086177
    23  H    1.753926   4.165589   2.163165   4.905210   1.084050
    24  H    3.801146   3.315746   2.761676   3.571239   2.730906
    25  H    5.073489   2.591314   3.404799   2.323284   4.013824
    26  C    4.057050   2.497949   2.545500   2.663208   2.990458
    27  N    4.366426   3.346779   3.204264   3.459529   3.379202
    28  H    4.528905   3.223625   3.268911   3.367783   3.658241
                   21         22         23         24         25
    21  C    0.000000
    22  H    2.898603   0.000000
    23  H    2.850930   1.747441   0.000000
    24  H    2.159099   2.416095   2.698595   0.000000
    25  H    2.139990   3.945669   3.986108   1.737787   0.000000
    26  C    1.514098   3.032824   2.904014   1.079752   1.084967
    27  N    2.442713   3.675966   2.819771   2.058512   2.093323
    28  H    2.565949   4.195853   3.085858   2.905237   2.678927
                   26         27         28
    26  C    0.000000
    27  N    1.454590   0.000000
    28  H    2.108534   0.994173   0.000000
 Stoichiometry    C11H15NO
 Framework group  C1[X(C11H15NO)]
 Deg. of freedom    78
 Full point group                 C1      NOp   1
 Largest Abelian subgroup         C1      NOp   1
 Largest concise Abelian subgroup C1      NOp   1
                         Standard orientation:                         
 ---------------------------------------------------------------------
 Center     Atomic      Atomic             Coordinates (Angstroms)
 Number     Number       Type             X           Y           Z
 ---------------------------------------------------------------------
      1          1           0       -4.853481   -0.145682    1.274547
      2          6           0       -3.943168   -0.728487    1.298531
      3          1           0       -4.217029   -1.778713    1.287837
      4          1           0       -3.402922   -0.521692    2.215042
      5          6           0       -3.136166   -0.422072    0.053915
      6          8           0       -3.662539   -0.203451   -1.003403
      7          1           0        4.696907   -1.576865    0.518933
      8          1           0        4.092237    0.727460    0.809500
      9          6           0        3.753044   -1.894522    0.091414
     10          6           0        3.096218    0.520462    0.458198
     11          1           0        2.460171    2.535931    0.721283
     12          1           0        3.951795   -2.270584   -0.907946
     13          1           0        3.383346   -2.726141    0.683778
     14          6           0        2.757099   -0.758565    0.058782
     15          6           0        2.164879    1.549530    0.408294
     16          1           0        0.331763    3.388831    0.320695
     17          6           0        1.454550   -0.970570   -0.387769
     18          6           0        0.870824    1.339751   -0.036330
     19          1           0        1.168456   -1.959117   -0.708084
     20          6           0       -0.109704    2.490042   -0.093079
     21          6           0        0.514315    0.044452   -0.440705
     22          1           0       -0.403764    2.709764   -1.115347
     23          1           0       -1.015108    2.274368    0.462702
     24          1           0       -1.278472    0.500698   -1.554016
     25          1           0       -0.872603   -1.188363   -1.506623
     26          6           0       -0.886384   -0.277824   -0.916807
     27          7           0       -1.792523   -0.424459    0.211574
     28          1           0       -1.406365   -0.724261    1.077242
 ---------------------------------------------------------------------
 Rotational constants (GHZ):      1.5196408      0.4040430      0.3524744

 Test job not archived.
 1\1\GINC-LAC-349\FOpt\RHF\6-31G(d)\C11H15N1O1\SONGLIN3\29-Nov-2017\0\\
 #HF/6-31G* SCF=tight Test Pop=MK iop(6/33=2) iop(6/42=6) opt # iop(6/5
 0=1)\\remark line goes here\\0,1\H,-4.853481,-0.145682,1.274547\C,-3.9
 43168,-0.728487,1.298531\H,-4.217029,-1.778713,1.287837\H,-3.402922,-0
 .521692,2.215042\C,-3.136166,-0.422072,0.053915\O,-3.662539,-0.203451,
 -1.003403\H,4.696907,-1.576865,0.518933\H,4.092237,0.72746,0.8095\C,3.
 753044,-1.894522,0.091414\C,3.096218,0.520462,0.458198\H,2.460171,2.53
 5931,0.721283\H,3.951795,-2.270584,-0.907946\H,3.383346,-2.726141,0.68
 3778\C,2.757099,-0.758565,0.058782\C,2.164879,1.54953,0.408294\H,0.331
 763,3.388831,0.320695\C,1.45455,-0.97057,-0.387769\C,0.870824,1.339751
 ,-0.03633\H,1.168456,-1.959117,-0.708084\C,-0.109704,2.490042,-0.09307
 9\C,0.514315,0.044452,-0.440705\H,-0.403764,2.709764,-1.115347\H,-1.01
 5108,2.274368,0.462702\H,-1.278472,0.500698,-1.554016\H,-0.872603,-1.1
 88363,-1.506623\C,-0.886384,-0.277824,-0.916807\N,-1.792523,-0.424459,
 0.211574\H,-1.406365,-0.724261,1.077242\\Version=ES64L-G09RevD.01\Stat
 e=1-A\HF=-554.6268349\RMSD=3.998e-09\RMSF=9.554e-07\Dipole=0.9953487,-
 0.331176,1.1575506\Quadrupole=-4.2945744,5.0540271,-0.7594527,0.728946
 5,-7.2740687,-0.1895608\PG=C01 [X(C11H15N1O1)]\\@


 TELEVISION IS CALLED A MEDIUM BECAUSE IT ISN'T
 RARE, AND IT ISN'T WELL DONE.
 Job cpu time:       0 days  0 hours  0 minutes 43.7 seconds.
 File lengths (MBytes):  RWF=    134 Int=      0 D2E=      0 Chk=      5 Scr=      2
 Normal termination of Gaussian 09 at Wed Nov 29 20:38:57 2017.
