 Entering Gaussian System, Link 0=g09
 Initial command:
 /opt/software/Gaussian/g09/l1.exe "/mnt/ls15/scratch/users/songlin3/Gau-19120.inp" -scrdir="/mnt/ls15/scratch/users/songlin3/"
 Entering Link 1 = /opt/software/Gaussian/g09/l1.exe PID=     19121.
  
 Copyright (c) 1988,1990,1992,1993,1995,1998,2003,2009,2013,
            Gaussian, Inc.  All Rights Reserved.
  
 This is part of the Gaussian(R) 09 program.  It is based on
 the Gaussian(R) 03 system (copyright 2003, Gaussian, Inc.),
 the Gaussian(R) 98 system (copyright 1998, Gaussian, Inc.),
 the Gaussian(R) 94 system (copyright 1995, Gaussian, Inc.),
 the Gaussian 92(TM) system (copyright 1992, Gaussian, Inc.),
 the Gaussian 90(TM) system (copyright 1990, Gaussian, Inc.),
 the Gaussian 88(TM) system (copyright 1988, Gaussian, Inc.),
 the Gaussian 86(TM) system (copyright 1986, Carnegie Mellon
 University), and the Gaussian 82(TM) system (copyright 1983,
 Carnegie Mellon University). Gaussian is a federally registered
 trademark of Gaussian, Inc.
  
 This software contains proprietary and confidential information,
 including trade secrets, belonging to Gaussian, Inc.
  
 This software is provided under written license and may be
 used, copied, transmitted, or stored only in accord with that
 written license.
  
 The following legend is applicable only to US Government
 contracts under FAR:
  
                    RESTRICTED RIGHTS LEGEND
  
 Use, reproduction and disclosure by the US Government is
 subject to restrictions as set forth in subparagraphs (a)
 and (c) of the Commercial Computer Software - Restricted
 Rights clause in FAR 52.227-19.
  
 Gaussian, Inc.
 340 Quinnipiac St., Bldg. 40, Wallingford CT 06492
  
  
 ---------------------------------------------------------------
 Warning -- This program may not be used in any manner that
 competes with the business of Gaussian, Inc. or will provide
 assistance to any competitor of Gaussian, Inc.  The licensee
 of this program is prohibited from giving any competitor of
 Gaussian, Inc. access to this program.  By using this program,
 the user acknowledges that Gaussian, Inc. is engaged in the
 business of creating and licensing software in the field of
 computational chemistry and represents and warrants to the
 licensee that it is not a competitor of Gaussian, Inc. and that
 it will not use this program in any manner prohibited above.
 ---------------------------------------------------------------
  

 Cite this work as:
 Gaussian 09, Revision D.01,
 M. J. Frisch, G. W. Trucks, H. B. Schlegel, G. E. Scuseria, 
 M. A. Robb, J. R. Cheeseman, G. Scalmani, V. Barone, B. Mennucci, 
 G. A. Petersson, H. Nakatsuji, M. Caricato, X. Li, H. P. Hratchian, 
 A. F. Izmaylov, J. Bloino, G. Zheng, J. L. Sonnenberg, M. Hada, 
 M. Ehara, K. Toyota, R. Fukuda, J. Hasegawa, M. Ishida, T. Nakajima, 
 Y. Honda, O. Kitao, H. Nakai, T. Vreven, J. A. Montgomery, Jr., 
 J. E. Peralta, F. Ogliaro, M. Bearpark, J. J. Heyd, E. Brothers, 
 K. N. Kudin, V. N. Staroverov, T. Keith, R. Kobayashi, J. Normand, 
 K. Raghavachari, A. Rendell, J. C. Burant, S. S. Iyengar, J. Tomasi, 
 M. Cossi, N. Rega, J. M. Millam, M. Klene, J. E. Knox, J. B. Cross, 
 V. Bakken, C. Adamo, J. Jaramillo, R. Gomperts, R. E. Stratmann, 
 O. Yazyev, A. J. Austin, R. Cammi, C. Pomelli, J. W. Ochterski, 
 R. L. Martin, K. Morokuma, V. G. Zakrzewski, G. A. Voth, 
 P. Salvador, J. J. Dannenberg, S. Dapprich, A. D. Daniels, 
 O. Farkas, J. B. Foresman, J. V. Ortiz, J. Cioslowski, 
 and D. J. Fox, Gaussian, Inc., Wallingford CT, 2013.
 
 ******************************************
 Gaussian 09:  ES64L-G09RevD.01 24-Apr-2013
                29-Nov-2017 
 ******************************************
 %RWF=myrwf
 %NoSave
 %chk=opt.chk
 %NprocShared=4
 Will use up to    4 processors via shared memory.
 %Mem=16GB
 ------------------------------------------------------------
 #HF/6-31G* SCF=tight Test Pop=MK iop(6/33=2) iop(6/42=6) opt
 ------------------------------------------------------------
 1/18=20,19=15,38=1/1,3;
 2/9=110,12=2,17=6,18=5,40=1/2;
 3/5=1,6=6,7=1,11=9,16=1,25=1,30=1,71=1/1,2,3;
 4//1;
 5/5=2,32=2,38=5/2;
 6/7=2,8=2,9=2,10=2,15=8,20=1,28=1,33=2,42=6/1,2;
 7//1,2,3,16;
 1/18=20,19=15/3(2);
 2/9=110/2;
 99//99;
 2/9=110/2;
 3/5=1,6=6,7=1,11=9,16=1,25=1,30=1,71=1/1,2,3;
 4/5=5,16=3,69=1/1;
 5/5=2,32=2,38=5/2;
 7//1,2,3,16;
 1/18=20,19=15/3(-5);
 2/9=110/2;
 6/7=2,8=2,9=2,10=2,15=8,19=2,20=1,28=1,33=2,42=6/1,2;
 99/9=1/99;
 ---------------------
 remark line goes here
 ---------------------
 Symbolic Z-matrix:
 Charge =  0 Multiplicity = 1
 H                     18.782   -12.757    20.527 
 C                     18.238   -11.896    20.914 
 H                     18.83    -10.993    20.762 
 H                     18.051   -12.032    21.979 
 C                     16.882   -11.725    20.193 
 O                     16.56    -12.52     19.309 
 H                     10.448   -9.499     23.913 
 H                     10.777   -12.011    23.44 
 C                     11.536   -9.438     23.883 
 C                     11.569   -11.694    22.774 
 H                     11.693   -13.607    21.814 
 H                     11.836   -8.409     23.69 
 H                     11.898   -9.721     24.868 
 C                     12.084   -10.389    22.843 
 C                     12.091   -12.603    21.842 
 H                     12.901   -14.06     19.849 
 C                     13.119   -9.996     21.969 
 C                     13.123   -12.222    20.962 
 H                     13.52    -8.995     22.033 
 C                     13.636   -13.267    19.991 
 C                     13.648   -10.903    21.022 
 H                     13.851   -12.851    19.009 
 H                     14.541   -13.725    20.389 
 H                     14.611   -10.799    19.085 
 H                     14.677   -9.335     20.009 
 C                     14.761   -10.418    20.095 
 N                     16.107   -10.704    20.577 
 H                     16.508   -10.04     21.235 
 

 GradGradGradGradGradGradGradGradGradGradGradGradGradGradGradGradGradGrad
 Berny optimization.
 Initialization pass.
                           ----------------------------
                           !    Initial Parameters    !
                           ! (Angstroms and Degrees)  !
 --------------------------                            --------------------------
 ! Name  Definition              Value          Derivative Info.                !
 --------------------------------------------------------------------------------
 ! R1    R(1,2)                  1.0895         estimate D2E/DX2                !
 ! R2    R(2,3)                  1.0904         estimate D2E/DX2                !
 ! R3    R(2,4)                  1.0898         estimate D2E/DX2                !
 ! R4    R(2,5)                  1.5453         estimate D2E/DX2                !
 ! R5    R(5,6)                  1.2317         estimate D2E/DX2                !
 ! R6    R(5,27)                 1.3381         estimate D2E/DX2                !
 ! R7    R(7,9)                  1.0901         estimate D2E/DX2                !
 ! R8    R(8,10)                 1.0823         estimate D2E/DX2                !
 ! R9    R(9,12)                 1.0891         estimate D2E/DX2                !
 ! R10   R(9,13)                 1.0869         estimate D2E/DX2                !
 ! R11   R(9,14)                 1.5121         estimate D2E/DX2                !
 ! R12   R(10,14)                1.4046         estimate D2E/DX2                !
 ! R13   R(10,15)                1.4026         estimate D2E/DX2                !
 ! R14   R(11,15)                1.0804         estimate D2E/DX2                !
 ! R15   R(14,17)                1.4105         estimate D2E/DX2                !
 ! R16   R(15,18)                1.4088         estimate D2E/DX2                !
 ! R17   R(16,20)                1.0905         estimate D2E/DX2                !
 ! R18   R(17,19)                1.0802         estimate D2E/DX2                !
 ! R19   R(17,21)                1.414          estimate D2E/DX2                !
 ! R20   R(18,20)                1.5159         estimate D2E/DX2                !
 ! R21   R(18,21)                1.4209         estimate D2E/DX2                !
 ! R22   R(20,22)                1.0879         estimate D2E/DX2                !
 ! R23   R(20,23)                1.0896         estimate D2E/DX2                !
 ! R24   R(21,26)                1.5275         estimate D2E/DX2                !
 ! R25   R(24,26)                1.0898         estimate D2E/DX2                !
 ! R26   R(25,26)                1.0897         estimate D2E/DX2                !
 ! R27   R(26,27)                1.458          estimate D2E/DX2                !
 ! R28   R(27,28)                1.0172         estimate D2E/DX2                !
 ! A1    A(1,2,3)              109.5025         estimate D2E/DX2                !
 ! A2    A(1,2,4)              109.5225         estimate D2E/DX2                !
 ! A3    A(1,2,5)              111.0923         estimate D2E/DX2                !
 ! A4    A(3,2,4)              109.4344         estimate D2E/DX2                !
 ! A5    A(3,2,5)              108.6472         estimate D2E/DX2                !
 ! A6    A(4,2,5)              108.6147         estimate D2E/DX2                !
 ! A7    A(2,5,6)              119.5277         estimate D2E/DX2                !
 ! A8    A(2,5,27)             117.3084         estimate D2E/DX2                !
 ! A9    A(6,5,27)             123.1632         estimate D2E/DX2                !
 ! A10   A(7,9,12)             109.4311         estimate D2E/DX2                !
 ! A11   A(7,9,13)             107.0316         estimate D2E/DX2                !
 ! A12   A(7,9,14)             110.2093         estimate D2E/DX2                !
 ! A13   A(12,9,13)            108.3526         estimate D2E/DX2                !
 ! A14   A(12,9,14)            111.8716         estimate D2E/DX2                !
 ! A15   A(13,9,14)            109.8071         estimate D2E/DX2                !
 ! A16   A(8,10,14)            120.6774         estimate D2E/DX2                !
 ! A17   A(8,10,15)            119.4336         estimate D2E/DX2                !
 ! A18   A(14,10,15)           119.8867         estimate D2E/DX2                !
 ! A19   A(9,14,10)            119.0282         estimate D2E/DX2                !
 ! A20   A(9,14,17)            121.1235         estimate D2E/DX2                !
 ! A21   A(10,14,17)           119.8316         estimate D2E/DX2                !
 ! A22   A(10,15,11)           118.8406         estimate D2E/DX2                !
 ! A23   A(10,15,18)           120.8255         estimate D2E/DX2                !
 ! A24   A(11,15,18)           120.3323         estimate D2E/DX2                !
 ! A25   A(14,17,19)           119.5949         estimate D2E/DX2                !
 ! A26   A(14,17,21)           120.7169         estimate D2E/DX2                !
 ! A27   A(19,17,21)           119.6835         estimate D2E/DX2                !
 ! A28   A(15,18,20)           117.4896         estimate D2E/DX2                !
 ! A29   A(15,18,21)           119.6925         estimate D2E/DX2                !
 ! A30   A(20,18,21)           122.8143         estimate D2E/DX2                !
 ! A31   A(16,20,18)           110.8915         estimate D2E/DX2                !
 ! A32   A(16,20,22)           107.0805         estimate D2E/DX2                !
 ! A33   A(16,20,23)           107.5604         estimate D2E/DX2                !
 ! A34   A(18,20,22)           112.4234         estimate D2E/DX2                !
 ! A35   A(18,20,23)           109.6862         estimate D2E/DX2                !
 ! A36   A(22,20,23)           109.044          estimate D2E/DX2                !
 ! A37   A(17,21,18)           119.0453         estimate D2E/DX2                !
 ! A38   A(17,21,26)           118.3839         estimate D2E/DX2                !
 ! A39   A(18,21,26)           122.5697         estimate D2E/DX2                !
 ! A40   A(21,26,24)           110.556          estimate D2E/DX2                !
 ! A41   A(21,26,25)           107.8964         estimate D2E/DX2                !
 ! A42   A(21,26,27)           114.1889         estimate D2E/DX2                !
 ! A43   A(24,26,25)           105.29           estimate D2E/DX2                !
 ! A44   A(24,26,27)           111.3984         estimate D2E/DX2                !
 ! A45   A(25,26,27)           106.9906         estimate D2E/DX2                !
 ! A46   A(5,27,26)            126.1201         estimate D2E/DX2                !
 ! A47   A(5,27,28)            117.0906         estimate D2E/DX2                !
 ! A48   A(26,27,28)           116.7269         estimate D2E/DX2                !
 ! D1    D(1,2,5,6)              0.0123         estimate D2E/DX2                !
 ! D2    D(1,2,5,27)           179.7317         estimate D2E/DX2                !
 ! D3    D(3,2,5,6)            120.5301         estimate D2E/DX2                !
 ! D4    D(3,2,5,27)           -59.7505         estimate D2E/DX2                !
 ! D5    D(4,2,5,6)           -120.5092         estimate D2E/DX2                !
 ! D6    D(4,2,5,27)            59.2102         estimate D2E/DX2                !
 ! D7    D(2,5,27,26)         -175.5722         estimate D2E/DX2                !
 ! D8    D(2,5,27,28)            7.4078         estimate D2E/DX2                !
 ! D9    D(6,5,27,26)            4.1362         estimate D2E/DX2                !
 ! D10   D(6,5,27,28)         -172.8839         estimate D2E/DX2                !
 ! D11   D(7,9,14,10)          -44.6063         estimate D2E/DX2                !
 ! D12   D(7,9,14,17)          136.8847         estimate D2E/DX2                !
 ! D13   D(12,9,14,10)        -166.5957         estimate D2E/DX2                !
 ! D14   D(12,9,14,17)          14.8954         estimate D2E/DX2                !
 ! D15   D(13,9,14,10)          73.0598         estimate D2E/DX2                !
 ! D16   D(13,9,14,17)        -105.4491         estimate D2E/DX2                !
 ! D17   D(8,10,14,9)            1.2826         estimate D2E/DX2                !
 ! D18   D(8,10,14,17)         179.8113         estimate D2E/DX2                !
 ! D19   D(15,10,14,9)        -178.1612         estimate D2E/DX2                !
 ! D20   D(15,10,14,17)          0.3674         estimate D2E/DX2                !
 ! D21   D(8,10,15,11)          -0.3997         estimate D2E/DX2                !
 ! D22   D(8,10,15,18)        -179.9379         estimate D2E/DX2                !
 ! D23   D(14,10,15,11)        179.0511         estimate D2E/DX2                !
 ! D24   D(14,10,15,18)         -0.4871         estimate D2E/DX2                !
 ! D25   D(9,14,17,19)          -0.8042         estimate D2E/DX2                !
 ! D26   D(9,14,17,21)         178.4064         estimate D2E/DX2                !
 ! D27   D(10,14,17,19)       -179.3013         estimate D2E/DX2                !
 ! D28   D(10,14,17,21)         -0.0907         estimate D2E/DX2                !
 ! D29   D(10,15,18,20)        179.6586         estimate D2E/DX2                !
 ! D30   D(10,15,18,21)          0.3242         estimate D2E/DX2                !
 ! D31   D(11,15,18,20)          0.1273         estimate D2E/DX2                !
 ! D32   D(11,15,18,21)       -179.2071         estimate D2E/DX2                !
 ! D33   D(14,17,21,18)         -0.0703         estimate D2E/DX2                !
 ! D34   D(14,17,21,26)        179.5637         estimate D2E/DX2                !
 ! D35   D(19,17,21,18)        179.1396         estimate D2E/DX2                !
 ! D36   D(19,17,21,26)         -1.2264         estimate D2E/DX2                !
 ! D37   D(15,18,20,16)         21.0117         estimate D2E/DX2                !
 ! D38   D(15,18,20,22)        140.8533         estimate D2E/DX2                !
 ! D39   D(15,18,20,23)        -97.6444         estimate D2E/DX2                !
 ! D40   D(21,18,20,16)       -159.6763         estimate D2E/DX2                !
 ! D41   D(21,18,20,22)        -39.8347         estimate D2E/DX2                !
 ! D42   D(21,18,20,23)         81.6677         estimate D2E/DX2                !
 ! D43   D(15,18,21,17)         -0.0445         estimate D2E/DX2                !
 ! D44   D(15,18,21,26)       -179.6623         estimate D2E/DX2                !
 ! D45   D(20,18,21,17)       -179.3419         estimate D2E/DX2                !
 ! D46   D(20,18,21,26)          1.0403         estimate D2E/DX2                !
 ! D47   D(17,21,26,24)       -139.5133         estimate D2E/DX2                !
 ! D48   D(17,21,26,25)        -24.8646         estimate D2E/DX2                !
 ! D49   D(17,21,26,27)         93.9306         estimate D2E/DX2                !
 ! D50   D(18,21,26,24)         40.107          estimate D2E/DX2                !
 ! D51   D(18,21,26,25)        154.7556         estimate D2E/DX2                !
 ! D52   D(18,21,26,27)        -86.4491         estimate D2E/DX2                !
 ! D53   D(21,26,27,5)          98.7709         estimate D2E/DX2                !
 ! D54   D(21,26,27,28)        -84.1995         estimate D2E/DX2                !
 ! D55   D(24,26,27,5)         -27.3461         estimate D2E/DX2                !
 ! D56   D(24,26,27,28)        149.6835         estimate D2E/DX2                !
 ! D57   D(25,26,27,5)        -141.9215         estimate D2E/DX2                !
 ! D58   D(25,26,27,28)         35.1082         estimate D2E/DX2                !
 --------------------------------------------------------------------------------
 Trust Radius=3.00D-01 FncErr=1.00D-07 GrdErr=1.00D-07
 Number of steps in this run=    144 maximum allowed number of steps=    168.
 GradGradGradGradGradGradGradGradGradGradGradGradGradGradGradGradGradGrad

                          Input orientation:                          
 ---------------------------------------------------------------------
 Center     Atomic      Atomic             Coordinates (Angstroms)
 Number     Number       Type             X           Y           Z
 ---------------------------------------------------------------------
      1          1           0       18.782000  -12.757000   20.527000
      2          6           0       18.238000  -11.896000   20.914000
      3          1           0       18.830000  -10.993000   20.762000
      4          1           0       18.051000  -12.032000   21.979000
      5          6           0       16.882000  -11.725000   20.193000
      6          8           0       16.560000  -12.520000   19.309000
      7          1           0       10.448000   -9.499000   23.913000
      8          1           0       10.777000  -12.011000   23.440000
      9          6           0       11.536000   -9.438000   23.883000
     10          6           0       11.569000  -11.694000   22.774000
     11          1           0       11.693000  -13.607000   21.814000
     12          1           0       11.836000   -8.409000   23.690000
     13          1           0       11.898000   -9.721000   24.868000
     14          6           0       12.084000  -10.389000   22.843000
     15          6           0       12.091000  -12.603000   21.842000
     16          1           0       12.901000  -14.060000   19.849000
     17          6           0       13.119000   -9.996000   21.969000
     18          6           0       13.123000  -12.222000   20.962000
     19          1           0       13.520000   -8.995000   22.033000
     20          6           0       13.636000  -13.267000   19.991000
     21          6           0       13.648000  -10.903000   21.022000
     22          1           0       13.851000  -12.851000   19.009000
     23          1           0       14.541000  -13.725000   20.389000
     24          1           0       14.611000  -10.799000   19.085000
     25          1           0       14.677000   -9.335000   20.009000
     26          6           0       14.761000  -10.418000   20.095000
     27          7           0       16.107000  -10.704000   20.577000
     28          1           0       16.508000  -10.040000   21.235000
 ---------------------------------------------------------------------
                    Distance matrix (angstroms):
                    1          2          3          4          5
     1  H    0.000000
     2  C    1.089507   0.000000
     3  H    1.780232   1.090402   0.000000
     4  H    1.779969   1.089812   1.779733   0.000000
     5  C    2.187825   1.545257   2.157380   2.156526   0.000000
     6  O    2.544991   2.404389   3.097715   3.096793   1.231733
     7  H    9.567399   8.684682   9.078478   8.243910   7.758211
     8  H    8.551147   7.877844   8.547445   7.419302   6.920681
     9  C    8.647717   7.731334   8.084621   7.266311   6.886667
    10  C    7.629308   6.926468   7.567144   6.539311   5.906817
    11  H    7.254846   6.824555   7.673100   6.552253   5.752850
    12  H    8.783882   7.800702   8.010386   7.394584   6.977606
    13  H    8.686255   7.782052   8.156583   7.179586   7.121229
    14  C    7.472248   6.622976   7.085471   6.249083   5.641649
    15  C    6.820735   6.256728   7.012319   5.988857   5.142350
    16  H    6.061654   5.856679   6.737440   5.930614   4.628058
    17  C    6.463130   5.561222   5.921687   5.335731   4.505972
    18  C    5.700854   5.125603   5.841258   5.035432   3.868908
    19  H    6.641485   5.650441   5.814082   5.454929   4.705480
    20  C    5.198915   4.889783   5.722163   4.996958   3.599317
    21  C    5.480903   4.697426   5.189299   4.645094   3.438267
    22  H    5.160225   4.877173   5.596036   5.208806   3.443355
    23  H    4.352258   4.157965   5.098870   4.208854   3.085239
    24  H    4.828081   4.207586   4.544219   4.661451   2.691204
    25  H    5.369305   4.478668   4.534687   4.747482   3.256990
    26  C    4.671829   3.865847   4.163205   4.120504   2.493290
    27  N    3.372378   2.464872   2.744535   2.740132   1.338104
    28  H    3.613091   2.557475   2.554138   2.627251   2.016151
                    6          7          8          9         10
     6  O    0.000000
     7  H    8.226773   0.000000
     8  H    7.125120   2.577230   0.000000
     9  C    7.460615   1.090122   2.718944   0.000000
    10  C    6.131768   2.715140   1.082270   2.514062   0.000000
    11  H    5.580706   4.778231   2.455636   4.656820   2.143955
    12  H    7.642621   1.778868   3.762763   1.089078   3.420756
    13  H    7.776318   1.750374   2.922315   1.086903   2.895826
    14  C    6.088094   2.147905   2.166920   1.512053   1.404639
    15  C    5.137601   4.077169   2.151898   3.806696   1.402636
    16  H    4.006430   6.583010   4.648124   6.284844   3.990965
    17  C    5.028584   3.340716   3.421846   2.545712   2.435925
    18  C    3.825465   4.824806   3.418877   4.336066   2.444799
    19  H    5.393274   3.636702   4.312766   2.748637   3.411757
    20  C    3.094012   6.304225   4.652636   5.849693   3.806824
    21  C    3.745504   4.535317   3.913698   3.846049   2.831506
    22  H    2.745586   6.845840   5.457915   6.384643   4.552076
    23  H    2.587428   6.857864   5.139464   6.294158   4.318098
    24  H    2.609716   6.506163   5.927438   5.859074   4.864515
    25  H    3.765623   5.757825   5.843179   4.988423   4.782235
    26  C    2.876213   5.832980   5.440490   5.070500   4.358220
    27  N    2.260728   6.678713   6.189824   5.781560   5.138127
    28  H    3.140474   6.647403   6.449126   5.665253   5.431202
                   11         12         13         14         15
    11  H    0.000000
    12  H    5.528022   0.000000
    13  H    4.946710   1.764333   0.000000
    14  C    3.401065   2.167790   2.140431   0.000000
    15  C    1.080372   4.590181   4.183282   2.429783   0.000000
    16  H    2.350680   6.915295   6.709940   4.807054   2.598268
    17  C    3.885463   2.669550   3.157636   1.410514   2.805238
    18  C    2.165417   4.861823   4.797131   2.824459   1.408753
    19  H    4.965525   2.434112   3.345921   2.159035   3.885381
    20  C    2.685922   6.365749   6.275340   4.338835   2.500824
    21  C    3.429418   4.076960   4.387635   2.454859   2.446763
    22  H    3.618912   6.760425   6.923799   4.887053   3.344397
    23  H    3.186794   6.817146   6.563452   4.815378   3.061469
    24  H    4.883342   5.883770   6.478082   4.547130   4.147995
    25  H    5.514732   4.741152   5.610857   3.983230   4.552703
    26  C    4.747347   5.051310   5.609288   3.836492   3.867187
    27  N    5.425954   5.761878   6.090538   4.628014   4.618948
    28  H    6.020212   5.524018   5.878142   4.720089   5.142695
                   16         17         18         19         20
    16  H    0.000000
    17  C    4.588902   0.000000
    18  C    2.160161   2.443183   0.000000
    19  H    5.550427   1.080231   3.423183   0.000000
    20  C    1.090522   3.857358   1.515927   4.736370   0.000000
    21  C    3.449723   1.413966   1.420910   2.163092   2.579070
    22  H    1.752079   4.177134   2.177116   4.911504   1.087936
    23  H    1.758814   4.292310   2.144309   5.110585   1.089584
    24  H    3.760574   3.344896   2.786073   3.624279   2.804012
    25  H    5.050287   2.589572   3.414366   2.356019   4.067509
    26  C    4.096862   2.527078   2.586339   2.705708   3.064840
    27  N    4.697995   3.371509   3.369986   3.425374   3.608075
    28  H    5.576006   3.467854   4.036568   3.264502   4.495492
                   21         22         23         24         25
    21  C    0.000000
    22  H    2.808573   0.000000
    23  H    3.026850   1.773239   0.000000
    24  H    2.165676   2.189539   3.204184   0.000000
    25  H    2.131580   3.747604   4.408514   1.732463   0.000000
    26  C    1.527522   2.815490   3.327324   1.089844   1.089652
    27  N    2.506852   3.486799   3.407953   2.114972   2.059535
    28  H    2.994952   4.462785   4.261928   2.966006   2.313582
                   26         27         28
    26  C    0.000000
    27  N    1.458025   0.000000
    28  H    2.120022   1.017183   0.000000
 Stoichiometry    C11H15NO
 Framework group  C1[X(C11H15NO)]
 Deg. of freedom    78
 Full point group                 C1      NOp   1
 Largest Abelian subgroup         C1      NOp   1
 Largest concise Abelian subgroup C1      NOp   1
                         Standard orientation:                         
 ---------------------------------------------------------------------
 Center     Atomic      Atomic             Coordinates (Angstroms)
 Number     Number       Type             X           Y           Z
 ---------------------------------------------------------------------
      1          1           0       -4.582523   -0.427800    1.534974
      2          6           0       -3.757230   -1.070520    1.230297
      3          1           0       -4.152319   -1.998918    0.816823
      4          1           0       -3.132514   -1.295375    2.094508
      5          6           0       -2.884433   -0.383276    0.156174
      6          8           0       -3.178075    0.748298   -0.231745
      7          1           0        4.842637   -1.064115    0.019530
      8          1           0        3.823267    1.065982    1.051850
      9          6           0        3.902418   -1.543560    0.292452
     10          6           0        2.897787    0.741189    0.594351
     11          1           0        1.953988    2.647294    0.863709
     12          1           0        3.766352   -2.442129   -0.307672
     13          1           0        3.986174   -1.837982    1.335361
     14          6           0        2.753880   -0.574604    0.124257
     15          6           0        1.830160    1.643999    0.482566
     16          1           0       -0.088337    3.295532   -0.102932
     17          6           0        1.538379   -0.980026   -0.465439
     18          6           0        0.612009    1.252055   -0.106564
     19          1           0        1.427953   -1.996019   -0.815386
     20          6           0       -0.493846    2.286242   -0.181244
     21          6           0        0.458203   -0.075887   -0.588121
     22          1           0       -1.046781    2.235730   -1.116828
     23          1           0       -1.185542    2.144561    0.648621
     24          1           0       -1.245083    0.199529   -1.896982
     25          1           0       -0.574312   -1.397798   -1.903454
     26          6           0       -0.830120   -0.568505   -1.244533
     27          7           0       -1.828228   -1.063762   -0.304141
     28          1           0       -1.734001   -2.031185   -0.004347
 ---------------------------------------------------------------------
 Rotational constants (GHZ):      1.4870045      0.4414088      0.3789289
 Standard basis: 6-31G(d) (6D, 7F)
 There are   225 symmetry adapted cartesian basis functions of A   symmetry.
 There are   225 symmetry adapted basis functions of A   symmetry.
   225 basis functions,   424 primitive gaussians,   225 cartesian basis functions
    48 alpha electrons       48 beta electrons
       nuclear repulsion energy       767.7674602894 Hartrees.
 NAtoms=   28 NActive=   28 NUniq=   28 SFac= 1.00D+00 NAtFMM=   60 NAOKFM=F Big=F
 Integral buffers will be    131072 words long.
 Raffenetti 1 integral format.
 Two-electron integral symmetry is turned on.
 One-electron integrals computed using PRISM.
 NBasis=   225 RedAO= T EigKep=  4.17D-04  NBF=   225
 NBsUse=   225 1.00D-06 EigRej= -1.00D+00 NBFU=   225
 ExpMin= 1.61D-01 ExpMax= 5.48D+03 ExpMxC= 8.25D+02 IAcc=1 IRadAn=         1 AccDes= 0.00D+00
 Harris functional with IExCor=  205 and IRadAn=       1 diagonalized for initial guess.
 HarFok:  IExCor=  205 AccDes= 0.00D+00 IRadAn=         1 IDoV= 1 UseB2=F ITyADJ=14
 ICtDFT=  3500011 ScaDFX=  1.000000  1.000000  1.000000  1.000000
 FoFCou: FMM=F IPFlag=           0 FMFlag=      100000 FMFlg1=           0
         NFxFlg=           0 DoJE=T BraDBF=F KetDBF=T FulRan=T
         wScrn=  0.000000 ICntrl=     500 IOpCl=  0 I1Cent=   200000004 NGrid=           0
         NMat0=    1 NMatS0=      1 NMatT0=    0 NMatD0=    1 NMtDS0=    0 NMtDT0=    0
 Petite list used in FoFCou.
 Keep R1 ints in memory in canonical form, NReq=329172988.
 Requested convergence on RMS density matrix=1.00D-08 within 128 cycles.
 Requested convergence on MAX density matrix=1.00D-06.
 Requested convergence on             energy=1.00D-06.
 No special actions if energy rises.
 SCF Done:  E(RHF) =  -554.613003770     A.U. after   14 cycles
            NFock= 14  Conv=0.73D-08     -V/T= 2.0022

 **********************************************************************

            Population analysis using the SCF density.

 **********************************************************************

 Orbital symmetries:
 BldTbl:  Degeneracy threshold= 1.00D-02
       Occupied  (A) (A) (A) (A) (A) (A) (A) (A) (A) (A) (A) (A)
                 (A) (A) (A) (A) (A) (A) (A) (A) (A) (A) (A) (A)
                 (A) (A) (A) (A) (A) (A) (A) (A) (A) (A) (A) (A)
                 (A) (A) (A) (A) (A) (A) (A) (A) (A) (A) (A) (A)
       Virtual   (A) (A) (A) (A) (A) (A) (A) (A) (A) (A) (A) (A)
                 (A) (A) (A) (A) (A) (A) (A) (A) (A) (A) (A) (A)
                 (A) (A) (A) (A) (A) (A) (A) (A) (A) (A) (A) (A)
                 (A) (A) (A) (A) (A) (A) (A) (A) (A) (A) (A) (A)
                 (A) (A) (A) (A) (A) (A) (A) (A) (A) (A) (A) (A)
                 (A) (A) (A) (A) (A) (A) (A) (A) (A) (A) (A) (A)
                 (A) (A) (A) (A) (A) (A) (A) (A) (A) (A) (A) (A)
                 (A) (A) (A) (A) (A) (A) (A) (A) (A) (A) (A) (A)
                 (A) (A) (A) (A) (A) (A) (A) (A) (A) (A) (A) (A)
                 (A) (A) (A) (A) (A) (A) (A) (A) (A) (A) (A) (A)
                 (A) (A) (A) (A) (A) (A) (A) (A) (A) (A) (A) (A)
                 (A) (A) (A) (A) (A) (A) (A) (A) (A) (A) (A) (A)
                 (A) (A) (A) (A) (A) (A) (A) (A) (A) (A) (A) (A)
                 (A) (A) (A) (A) (A) (A) (A) (A) (A) (A) (A) (A)
                 (A) (A) (A) (A) (A) (A) (A) (A) (A)
 The electronic state is 1-A.
 Alpha  occ. eigenvalues --  -20.51084 -15.59198 -11.34750 -11.27327 -11.23928
 Alpha  occ. eigenvalues --  -11.23817 -11.23604 -11.23602 -11.23221 -11.22816
 Alpha  occ. eigenvalues --  -11.22697 -11.22157 -11.20269  -1.36408  -1.23211
 Alpha  occ. eigenvalues --   -1.14407  -1.05752  -1.03197  -0.99367  -0.96425
 Alpha  occ. eigenvalues --   -0.92838  -0.87974  -0.81674  -0.78224  -0.76642
 Alpha  occ. eigenvalues --   -0.68664  -0.65427  -0.65087  -0.64011  -0.63276
 Alpha  occ. eigenvalues --   -0.60679  -0.57910  -0.57318  -0.56594  -0.56303
 Alpha  occ. eigenvalues --   -0.55575  -0.55231  -0.53772  -0.53005  -0.51379
 Alpha  occ. eigenvalues --   -0.51230  -0.47794  -0.46678  -0.45975  -0.40641
 Alpha  occ. eigenvalues --   -0.38524  -0.32454  -0.30230
 Alpha virt. eigenvalues --    0.13588   0.14919   0.20700   0.21079   0.24610
 Alpha virt. eigenvalues --    0.26115   0.26293   0.27238   0.29085   0.29736
 Alpha virt. eigenvalues --    0.30574   0.31069   0.31837   0.32878   0.34135
 Alpha virt. eigenvalues --    0.34217   0.35852   0.37273   0.38503   0.40272
 Alpha virt. eigenvalues --    0.40951   0.42717   0.44266   0.46115   0.50585
 Alpha virt. eigenvalues --    0.51723   0.51968   0.55754   0.56489   0.59033
 Alpha virt. eigenvalues --    0.66283   0.70156   0.71953   0.72996   0.73627
 Alpha virt. eigenvalues --    0.74308   0.75489   0.76049   0.76995   0.78927
 Alpha virt. eigenvalues --    0.80811   0.81066   0.82591   0.83735   0.84083
 Alpha virt. eigenvalues --    0.85527   0.87400   0.89274   0.89894   0.92809
 Alpha virt. eigenvalues --    0.93827   0.94429   0.95334   0.97115   0.98694
 Alpha virt. eigenvalues --    0.99284   0.99619   1.01186   1.03402   1.05492
 Alpha virt. eigenvalues --    1.09003   1.11221   1.11879   1.13057   1.13965
 Alpha virt. eigenvalues --    1.14822   1.15232   1.15636   1.17015   1.17153
 Alpha virt. eigenvalues --    1.18154   1.18834   1.19920   1.21362   1.22560
 Alpha virt. eigenvalues --    1.22790   1.24435   1.25095   1.27006   1.28511
 Alpha virt. eigenvalues --    1.30119   1.35861   1.36501   1.39547   1.42244
 Alpha virt. eigenvalues --    1.43236   1.45386   1.47051   1.49932   1.52198
 Alpha virt. eigenvalues --    1.57419   1.58381   1.61806   1.62949   1.65210
 Alpha virt. eigenvalues --    1.65750   1.69475   1.70620   1.73292   1.74490
 Alpha virt. eigenvalues --    1.75209   1.77240   1.79916   1.82783   1.90598
 Alpha virt. eigenvalues --    1.96611   1.98408   2.05937   2.07676   2.10126
 Alpha virt. eigenvalues --    2.12430   2.13174   2.13391   2.15751   2.17400
 Alpha virt. eigenvalues --    2.19470   2.20456   2.21666   2.22727   2.24373
 Alpha virt. eigenvalues --    2.24695   2.26736   2.28497   2.34006   2.36612
 Alpha virt. eigenvalues --    2.38024   2.39809   2.42175   2.47845   2.48478
 Alpha virt. eigenvalues --    2.50679   2.52050   2.53550   2.55591   2.56709
 Alpha virt. eigenvalues --    2.59870   2.63279   2.64178   2.64862   2.66687
 Alpha virt. eigenvalues --    2.68098   2.69317   2.71713   2.73034   2.74363
 Alpha virt. eigenvalues --    2.79133   2.81502   2.83383   2.91232   2.96409
 Alpha virt. eigenvalues --    2.99283   3.00060   3.04877   3.09443   3.13359
 Alpha virt. eigenvalues --    3.15604   3.18351   3.20301   3.25278   3.30958
 Alpha virt. eigenvalues --    3.34939   3.47627   3.54022   3.76867   4.39340
 Alpha virt. eigenvalues --    4.47376   4.52168   4.55322   4.57041   4.62393
 Alpha virt. eigenvalues --    4.66178   4.71457   4.78766   4.81949   4.88548
 Alpha virt. eigenvalues --    4.92344   5.17906
          Condensed to atoms (all electrons):
               1          2          3          4          5          6
     1  H    0.454099   0.385405  -0.018887  -0.018667  -0.029094   0.003823
     2  C    0.385405   5.262172   0.371064   0.373452   0.370234  -0.070892
     3  H   -0.018887   0.371064   0.522441  -0.024558  -0.033611   0.001364
     4  H   -0.018667   0.373452  -0.024558   0.513472  -0.034401   0.001184
     5  C   -0.029094   0.370234  -0.033611  -0.034401   4.186201   0.594407
     6  O    0.003823  -0.070892   0.001364   0.001184   0.594407   8.195829
     7  H    0.000000   0.000000   0.000000   0.000000   0.000000   0.000000
     8  H    0.000000   0.000000   0.000000   0.000000   0.000000   0.000000
     9  C    0.000000   0.000000   0.000000   0.000000   0.000000   0.000000
    10  C    0.000000   0.000000   0.000000   0.000000   0.000000   0.000000
    11  H    0.000000   0.000000   0.000000   0.000000   0.000000   0.000000
    12  H    0.000000   0.000000   0.000000   0.000000   0.000000   0.000000
    13  H    0.000000   0.000000   0.000000   0.000000   0.000000   0.000000
    14  C    0.000000   0.000000   0.000000   0.000000   0.000002   0.000000
    15  C    0.000000  -0.000001   0.000000   0.000000  -0.000009  -0.000005
    16  H    0.000000   0.000002   0.000000   0.000000   0.000055   0.000294
    17  C    0.000000  -0.000008   0.000000   0.000002  -0.000013  -0.000013
    18  C    0.000001  -0.000037   0.000000   0.000010   0.000641  -0.000343
    19  H    0.000000   0.000000   0.000000   0.000000  -0.000002   0.000000
    20  C   -0.000002   0.000020  -0.000001   0.000002  -0.001007  -0.003155
    21  C    0.000002  -0.000185   0.000000   0.000038  -0.001581  -0.000393
    22  H    0.000000   0.000007   0.000000   0.000000  -0.000238   0.000287
    23  H    0.000004  -0.000042   0.000002  -0.000010   0.000201   0.002493
    24  H    0.000001   0.000138  -0.000011  -0.000003   0.000222   0.003300
    25  H    0.000001  -0.000029  -0.000001  -0.000004   0.002801   0.000290
    26  C   -0.000062   0.003727  -0.000154  -0.000211  -0.015918   0.006922
    27  N    0.003479  -0.118158   0.003738   0.003932   0.239768  -0.103355
    28  H   -0.000008  -0.000161   0.000735   0.000282  -0.020654   0.002420
               7          8          9         10         11         12
     1  H    0.000000   0.000000   0.000000   0.000000   0.000000   0.000000
     2  C    0.000000   0.000000   0.000000   0.000000   0.000000   0.000000
     3  H    0.000000   0.000000   0.000000   0.000000   0.000000   0.000000
     4  H    0.000000   0.000000   0.000000   0.000000   0.000000   0.000000
     5  C    0.000000   0.000000   0.000000   0.000000   0.000000   0.000000
     6  O    0.000000   0.000000   0.000000   0.000000   0.000000   0.000000
     7  H    0.527105   0.001409   0.393964  -0.003363  -0.000002  -0.023095
     8  H    0.001409   0.479842  -0.001715   0.381130  -0.001029  -0.000004
     9  C    0.393964  -0.001715   5.096492  -0.054112  -0.000119   0.396025
    10  C   -0.003363   0.381130  -0.054112   4.937446  -0.030927   0.003173
    11  H   -0.000002  -0.001029  -0.000119  -0.030927   0.476045   0.000002
    12  H   -0.023095  -0.000004   0.396025   0.003173   0.000002   0.522377
    13  H   -0.030960   0.000546   0.388412  -0.003535   0.000001  -0.026087
    14  C   -0.041040  -0.033345   0.325502   0.563876   0.001948  -0.041913
    15  C    0.000126  -0.028541   0.002600   0.531722   0.381269  -0.000044
    16  H    0.000000  -0.000007   0.000000   0.000407   0.001841   0.000000
    17  C    0.001570   0.002399  -0.040961  -0.036194   0.000350  -0.002082
    18  C    0.000002   0.001904   0.000353  -0.046004  -0.029658  -0.000009
    19  H   -0.000008  -0.000113  -0.002297   0.002596   0.000012   0.002490
    20  C    0.000000  -0.000115   0.000003   0.003325  -0.002532   0.000000
    21  C   -0.000058   0.000282   0.002940  -0.032157   0.002074   0.000223
    22  H    0.000000   0.000002   0.000000  -0.000070   0.000030   0.000000
    23  H    0.000000   0.000002   0.000000  -0.000152   0.000248   0.000000
    24  H    0.000000   0.000000   0.000002  -0.000009  -0.000001   0.000000
    25  H    0.000000   0.000000  -0.000009  -0.000011   0.000002  -0.000001
    26  C    0.000002   0.000007  -0.000118   0.000224  -0.000097  -0.000003
    27  N    0.000000   0.000000   0.000001   0.000000   0.000002   0.000000
    28  H    0.000000   0.000000   0.000000  -0.000002   0.000000   0.000000
              13         14         15         16         17         18
     1  H    0.000000   0.000000   0.000000   0.000000   0.000000   0.000001
     2  C    0.000000   0.000000  -0.000001   0.000002  -0.000008  -0.000037
     3  H    0.000000   0.000000   0.000000   0.000000   0.000000   0.000000
     4  H    0.000000   0.000000   0.000000   0.000000   0.000002   0.000010
     5  C    0.000000   0.000002  -0.000009   0.000055  -0.000013   0.000641
     6  O    0.000000   0.000000  -0.000005   0.000294  -0.000013  -0.000343
     7  H   -0.030960  -0.041040   0.000126   0.000000   0.001570   0.000002
     8  H    0.000546  -0.033345  -0.028541  -0.000007   0.002399   0.001904
     9  C    0.388412   0.325502   0.002600   0.000000  -0.040961   0.000353
    10  C   -0.003535   0.563876   0.531722   0.000407  -0.036194  -0.046004
    11  H    0.000001   0.001948   0.381269   0.001841   0.000350  -0.029658
    12  H   -0.026087  -0.041913  -0.000044   0.000000  -0.002082  -0.000009
    13  H    0.534279  -0.039102  -0.000067   0.000000  -0.000924   0.000027
    14  C   -0.039102   4.798805  -0.040890  -0.000013   0.569263  -0.027551
    15  C   -0.000067  -0.040890   4.939267  -0.005346  -0.039521   0.556270
    16  H    0.000000  -0.000013  -0.005346   0.547623  -0.000057  -0.040055
    17  C   -0.000924   0.569263  -0.039521  -0.000057   4.960638  -0.038860
    18  C    0.000027  -0.027551   0.556270  -0.040055  -0.038860   4.823325
    19  H    0.000088  -0.028175   0.000215   0.000001   0.377474   0.001973
    20  C    0.000000   0.000218  -0.048611   0.389143   0.002769   0.324404
    21  C   -0.000085  -0.044758  -0.035216   0.003199   0.536210   0.579676
    22  H    0.000000   0.000000   0.002842  -0.028569   0.000085  -0.037652
    23  H    0.000000   0.000030  -0.001057  -0.028113  -0.000084  -0.037223
    24  H    0.000000  -0.000025   0.000099  -0.000008   0.002338  -0.001297
    25  H    0.000000   0.000246  -0.000060   0.000002  -0.001769   0.002067
    26  C    0.000001   0.002284   0.002590   0.000117  -0.041649  -0.036302
    27  N    0.000000   0.000046   0.000010  -0.000037  -0.000403   0.001075
    28  H    0.000000   0.000001   0.000000   0.000000   0.000928   0.000089
              19         20         21         22         23         24
     1  H    0.000000  -0.000002   0.000002   0.000000   0.000004   0.000001
     2  C    0.000000   0.000020  -0.000185   0.000007  -0.000042   0.000138
     3  H    0.000000  -0.000001   0.000000   0.000000   0.000002  -0.000011
     4  H    0.000000   0.000002   0.000038   0.000000  -0.000010  -0.000003
     5  C   -0.000002  -0.001007  -0.001581  -0.000238   0.000201   0.000222
     6  O    0.000000  -0.003155  -0.000393   0.000287   0.002493   0.003300
     7  H   -0.000008   0.000000  -0.000058   0.000000   0.000000   0.000000
     8  H   -0.000113  -0.000115   0.000282   0.000002   0.000002   0.000000
     9  C   -0.002297   0.000003   0.002940   0.000000   0.000000   0.000002
    10  C    0.002596   0.003325  -0.032157  -0.000070  -0.000152  -0.000009
    11  H    0.000012  -0.002532   0.002074   0.000030   0.000248  -0.000001
    12  H    0.002490   0.000000   0.000223   0.000000   0.000000   0.000000
    13  H    0.000088   0.000000  -0.000085   0.000000   0.000000   0.000000
    14  C   -0.028175   0.000218  -0.044758   0.000000   0.000030  -0.000025
    15  C    0.000215  -0.048611  -0.035216   0.002842  -0.001057   0.000099
    16  H    0.000001   0.389143   0.003199  -0.028569  -0.028113  -0.000008
    17  C    0.377474   0.002769   0.536210   0.000085  -0.000084   0.002338
    18  C    0.001973   0.324404   0.579676  -0.037652  -0.037223  -0.001297
    19  H    0.491369  -0.000097  -0.034141   0.000000   0.000002   0.000042
    20  C   -0.000097   5.095070  -0.045106   0.397232   0.389829  -0.000510
    21  C   -0.034141  -0.045106   4.899637  -0.005010  -0.003069  -0.042391
    22  H    0.000000   0.397232  -0.005010   0.506620  -0.022292   0.001690
    23  H    0.000002   0.389829  -0.003069  -0.022292   0.500817  -0.000409
    24  H    0.000042  -0.000510  -0.042391   0.001690  -0.000409   0.457483
    25  H    0.002209   0.000098  -0.058941   0.000073  -0.000022  -0.023726
    26  C   -0.002201  -0.009087   0.331066  -0.000859   0.000408   0.407319
    27  N    0.000225   0.000976  -0.074414  -0.000257   0.000246  -0.034712
    28  H    0.000099  -0.000013   0.001424   0.000000  -0.000011   0.002481
              25         26         27         28
     1  H    0.000001  -0.000062   0.003479  -0.000008
     2  C   -0.000029   0.003727  -0.118158  -0.000161
     3  H   -0.000001  -0.000154   0.003738   0.000735
     4  H   -0.000004  -0.000211   0.003932   0.000282
     5  C    0.002801  -0.015918   0.239768  -0.020654
     6  O    0.000290   0.006922  -0.103355   0.002420
     7  H    0.000000   0.000002   0.000000   0.000000
     8  H    0.000000   0.000007   0.000000   0.000000
     9  C   -0.000009  -0.000118   0.000001   0.000000
    10  C   -0.000011   0.000224   0.000000  -0.000002
    11  H    0.000002  -0.000097   0.000002   0.000000
    12  H   -0.000001  -0.000003   0.000000   0.000000
    13  H    0.000000   0.000001   0.000000   0.000000
    14  C    0.000246   0.002284   0.000046   0.000001
    15  C   -0.000060   0.002590   0.000010   0.000000
    16  H    0.000002   0.000117  -0.000037   0.000000
    17  C   -0.001769  -0.041649  -0.000403   0.000928
    18  C    0.002067  -0.036302   0.001075   0.000089
    19  H    0.002209  -0.002201   0.000225   0.000099
    20  C    0.000098  -0.009087   0.000976  -0.000013
    21  C   -0.058941   0.331066  -0.074414   0.001424
    22  H    0.000073  -0.000859  -0.000257   0.000000
    23  H   -0.000022   0.000408   0.000246  -0.000011
    24  H   -0.023726   0.407319  -0.034712   0.002481
    25  H    0.520677   0.420928  -0.046359  -0.003340
    26  C    0.420928   4.938860   0.175939  -0.022924
    27  N   -0.046359   0.175939   7.397704   0.322810
    28  H   -0.003340  -0.022924   0.322810   0.332568
 Mulliken charges:
               1
     1  H    0.219906
     2  C   -0.576708
     3  H    0.177880
     4  H    0.185480
     5  C    0.741997
     6  O   -0.634458
     7  H    0.174349
     8  H    0.197346
     9  C   -0.506962
    10  C   -0.217364
    11  H    0.200541
    12  H    0.168949
    13  H    0.177404
    14  C    0.034591
    15  C   -0.217642
    16  H    0.159523
    17  C   -0.251488
    18  C    0.003175
    19  H    0.188238
    20  C   -0.492851
    21  C    0.020735
    22  H    0.186081
    23  H    0.198202
    24  H    0.227987
    25  H    0.184878
    26  C   -0.160809
    27  N   -0.772258
    28  H    0.383277
 Sum of Mulliken charges =   0.00000
 Mulliken charges with hydrogens summed into heavy atoms:
               1
     2  C    0.006559
     5  C    0.741997
     6  O   -0.634458
     9  C    0.013740
    10  C   -0.020018
    14  C    0.034591
    15  C   -0.017102
    17  C   -0.063250
    18  C    0.003175
    20  C    0.050955
    21  C    0.020735
    26  C    0.252056
    27  N   -0.388981
 DipInt: DoE/N= T F RetVal/Mat= T F Init=T NMatP=  1 IDeriv=0 Min/MaxMlt=  0  4
 Entering OneElI...
 OneElI was handed  2147351220 working-precision words.
 Multipole integrals L=0 to 4 MinM= 0 MaxM= 0.
 Requested accuracy = 0.1000D-12
 ShPair: Thresh= 1.00D-13 NBox=     0 BxSize= 0.00D+00 RnKept= 1.81D+01
         NSMCal=                 3403 NSMKep=                2974
 PrsmSu:  NPrtUS=   1 ThrOK=F IAlg=1 NPAlg=1 LenDen=           0.
 Prism:   IPart=     0 DynPar=F LinDyn=F Incr=          29.
 PRISM was handed  2147100582 working-precision words and  2974 shell-pairs
 IPart=  0 NShTot=        2974 NBatch=          48 AvBLen=        62.0
 PrSmSu:  NxtVal=             30.
 Electronic moments (au):
        -96.00000000          0.55867182         -1.39833762          0.33644010
      -2199.36664104       -623.46666942       -229.83061091          7.14962077
         -1.40862402          1.39213748        -49.26814824       -654.12373829
        -14.81819669       -433.28855355       2016.09379057      -1599.63085163
        334.42391292        157.51618968        -91.30833105       -394.12503036
     -95215.83590566      -9815.97199985      -1945.29148071       3971.06565836
       3192.26398532        856.33713842        111.09675051        615.77233319
        144.34750194     -12485.42113437      -5769.42537482      -1334.25721759
       2432.36988921       -169.41963795       -815.67532511
 Electronic spatial extent (au):  <R**2>=           3052.6639
 DipInt: DoE/N= F T RetVal/Mat= T F Init=T NMatP=  1 IDeriv=0 Min/MaxMlt=  0  4
 Nuclear    moments (au):
         96.00000000          0.00000000          0.00000000          0.00000000
       2138.81739013        569.54296830        171.65193125          0.00000000
          0.00000000          0.00000000         70.12093502        642.23781679
         11.37200608        427.84728658      -2060.60467076       1636.32740090
       -354.48589283       -159.45291861         93.03669813        400.84240270
      87425.84153752       7689.12396903       1132.62340107      -3694.89108012
      -3270.83739887       -790.80083340        -71.97694612       -605.13357051
       -152.16946046      10809.80391121       4332.47206635        824.90720780
      -2400.16788127        182.73571257        805.28045150
 Total      moments (au):
          0.00000000          0.55867182         -1.39833762          0.33644010
        -60.54925091        -53.92370112        -58.17867966          7.14962077
         -1.40862402          1.39213748         20.85278678        -11.88592150
         -3.44619061         -5.44126697        -44.51088018         36.69654927
        -20.06197991         -1.93672892          1.72836708          6.71737234
      -7789.99436814      -2126.84803082       -812.66807964        276.17457823
        -78.57341355         65.53630502         39.11980439         10.63876268
         -7.82195853      -1675.61722316      -1436.95330846       -509.35000980
         32.20200795         13.31607462        -10.39487361
 Traceless Quadrup. (au):
         -2.99870702          3.62684278         -0.62813576          7.14962077
         -1.40862402          1.39213748
 Charge=              0.0000 electrons
 Dipole moment (field-independent basis, Debye):
    X=              1.4200    Y=             -3.5542    Z=              0.8551  Tot=              3.9218
 Quadrupole moment (field-independent basis, Debye-Ang):
   XX=            -81.4408   YY=            -72.5292   ZZ=            -78.2523
   XY=              9.6165   XZ=             -1.8946   YZ=              1.8725
 Traceless Quadrupole moment (field-independent basis, Debye-Ang):
   XX=             -4.0334   YY=              4.8782   ZZ=             -0.8449
   XY=              9.6165   XZ=             -1.8946   YZ=              1.8725
 Octapole moment (field-independent basis, Debye-Ang**2):
  XXX=             14.8422  YYY=             -8.4599  ZZZ=             -2.4529  XYY=             -3.8729
  XXY=            -31.6811  XXZ=             26.1192  XZZ=            -14.2793  YZZ=             -1.3785
  YYZ=              1.2302  XYZ=              4.7812
 Hexadecapole moment (field-independent basis, Debye-Ang**3):
 XXXX=          -2934.0852 YYYY=           -801.0729 ZZZZ=           -306.0897 XXXY=            104.0206
 XXXZ=            -29.5945 YYYX=             24.6841 YYYZ=             14.7344 ZZZX=              4.0071
 ZZZY=             -2.9461 XXYY=           -631.1178 XXZZ=           -541.2255 YYZZ=           -191.8456
 XXYZ=             12.1288 YYXZ=              5.0155 ZZXY=             -3.9152
 N-N= 7.677674602894D+02 E-N=-2.830291212303D+03  KE= 5.533772335794D+02
 Entering OneElI...
 OneElI was handed  2147375720 working-precision words.
 Calculate electrostatic properties
    NBasis =   225  MinDer = 0  MaxDer = 0
    NGrid  =    28  NMatD  =   1
 Requested accuracy = 0.1000D-12
 PrtBox:  NBox=     1 Levels=  1 BoxLen=   29.89 SMaxX=       17.81
          Shift=            8.659714            4.614955            3.597006
 Box      1 Number                   0 centers from      1 to     82:
 ShPair: Thresh= 1.00D-13 NBox=     1 BxSize= 2.99D+01 RnKept= 1.66D+01
         NSMCal=                 3403 NSMKep=                2729
 PrsmSu:  NPrtUS=   4 ThrOK=T IAlg=1 NPAlg=1 LenDen=           0.
 Prism:   IPart=     0 DynPar=F LinDyn=F Incr=         191.
 PRISM was handed   536724903 working-precision words and  2729 shell-pairs
 PRISM was handed   536724903 working-precision words and  2729 shell-pairs
 PRISM was handed   536724903 working-precision words and  2729 shell-pairs
 PRISM was handed   536724903 working-precision words and  2729 shell-pairs
 IPart=  2 NShTot=       18956 NBatch=         677 AvBLen=        28.0
 IPart=  3 NShTot=       18704 NBatch=         668 AvBLen=        28.0
 IPart=  0 NShTot=       19628 NBatch=         701 AvBLen=        28.0
 IPart=  1 NShTot=       19124 NBatch=         683 AvBLen=        28.0
 PrSmSu:  NxtVal=            765.
 --------------------------------------------------------
       Center         ----      EFG at Nuclei      ----
                      3XX-RR        3YY-RR        3ZZ-RR
 --------------------------------------------------------
     1   Atom       -0.109057     -0.006658      0.115715
     2   Atom        0.000826      0.032102     -0.032928
     3   Atom        0.093018     -0.179689      0.086671
     4   Atom       -0.000451      0.136975     -0.136524
     5   Atom       -0.048384      0.192333     -0.143948
     6   Atom        0.730009     -0.928211      0.198201
     7   Atom       -0.189494      0.060568      0.128926
     8   Atom       -0.190947      0.107369      0.083578
     9   Atom       -0.014701     -0.009034      0.023735
    10   Atom        0.086126      0.144283     -0.230409
    11   Atom        0.144682     -0.254500      0.109818
    12   Atom        0.141922     -0.159221      0.017299
    13   Atom        0.153587      0.120676     -0.274263
    14   Atom        0.090917      0.133284     -0.224201
    15   Atom        0.135874      0.097908     -0.233782
    16   Atom        0.081500     -0.238005      0.156505
    17   Atom        0.132428      0.067276     -0.199704
    18   Atom        0.115157      0.117329     -0.232487
    19   Atom        0.144430     -0.264479      0.120049
    20   Atom        0.018925     -0.054274      0.035349
    21   Atom        0.074715      0.141615     -0.216330
    22   Atom        0.042316      0.144442     -0.186758
    23   Atom       -0.027331      0.138962     -0.111631
    24   Atom        0.079417     -0.071068     -0.008349
    25   Atom        0.121446     -0.111783     -0.009662
    26   Atom       -0.067742      0.136796     -0.069054
    27   Atom       -0.038901     -0.372091      0.410992
    28   Atom        0.169403     -0.321215      0.151812
 --------------------------------------------------------
                        XY            XZ            YZ
 --------------------------------------------------------
     1   Atom        0.202271      0.097801     -0.073253
     2   Atom       -0.048177      0.039700      0.022822
     3   Atom       -0.143018     -0.055849     -0.147710
     4   Atom        0.054261     -0.204362      0.079107
     5   Atom       -0.141977     -0.322686     -0.291877
     6   Atom        0.118206     -1.224193      0.075727
     7   Atom       -0.170352      0.100569      0.050491
     8   Atom       -0.115670     -0.174620     -0.064610
     9   Atom        0.031401     -0.001003     -0.001937
    10   Atom       -0.072862      0.122476      0.115525
    11   Atom       -0.046095     -0.026100     -0.158262
    12   Atom       -0.044555     -0.035389     -0.211515
    13   Atom        0.013496     -0.034070      0.122095
    14   Atom       -0.014505      0.155174      0.138154
    15   Atom       -0.063291      0.155375      0.108392
    16   Atom       -0.156622     -0.016144     -0.030630
    17   Atom       -0.057683      0.143153      0.098656
    18   Atom       -0.034512      0.162619      0.131208
    19   Atom       -0.043169     -0.024500     -0.150620
    20   Atom        0.060453     -0.004145      0.002876
    21   Atom       -0.070632      0.108102      0.108266
    22   Atom       -0.004051     -0.203670     -0.024133
    23   Atom       -0.031350      0.223211      0.047650
    24   Atom        0.113073     -0.098526      0.189566
    25   Atom        0.075942      0.069975     -0.204319
    26   Atom       -0.132396      0.187306      0.048831
    27   Atom        0.230666      0.667299      0.378244
    28   Atom        0.063460      0.022357      0.166867
 --------------------------------------------------------


 ---------------------------------------------------------------------------------
              Nuclear Quadrupole Coupling Constant in Principal Axis System
 ---------------------------------------------------------------------------------

       Atom             a.u.   MegaHertz   Gauss  10(-4) cm-1        Axes

              Baa    -0.5467     2.626     0.937     0.876  0.4899  0.6385 -0.5935
    27 N(14)  Bbb    -0.4828     2.319     0.827     0.774 -0.6755  0.7084  0.2045
              Bcc     1.0296    -4.945    -1.764    -1.649  0.5511  0.3007  0.7784
 

 ---------------------------------------------------------------------------------

 No NMR shielding tensors so no spin-rotation constants.
 Leave Link  601 at Wed Nov 29 20:23:55 2017, MaxMem=  2147483648 cpu:         0.4
 FitSet:  NAtFit=    28 NAtPot=    28 NAtFrz=     0 MDM=    32 TotChg=   0.00000
 Merz-Kollman atomic radii used.
 Atom Element Radius
    1     1    1.20
    2     6    1.50
    3     1    1.20
    4     1    1.20
    5     6    1.50
    6     8    1.40
    7     1    1.20
    8     1    1.20
    9     6    1.50
   10     6    1.50
   11     1    1.20
   12     1    1.20
   13     1    1.20
   14     6    1.50
   15     6    1.50
   16     1    1.20
   17     6    1.50
   18     6    1.50
   19     1    1.20
   20     6    1.50
   21     6    1.50
   22     1    1.20
   23     1    1.20
   24     1    1.20
   25     1    1.20
   26     6    1.50
   27     7    1.50
   28     1    1.20
 Generate VDW surfaces: Layer= 4 Dens= 6 Start= 1.400 Inc= 0.200

 **********************************************************************

            Electrostatic Properties Using The SCF Density

 **********************************************************************

       Atomic Center    1 is at  -4.582523 -0.427800  1.534974
       Atomic Center    2 is at  -3.757230 -1.070520  1.230297
       Atomic Center    3 is at  -4.152319 -1.998918  0.816823
       Atomic Center    4 is at  -3.132514 -1.295375  2.094508
       Atomic Center    5 is at  -2.884433 -0.383276  0.156174
       Atomic Center    6 is at  -3.178075  0.748298 -0.231745
       Atomic Center    7 is at   4.842637 -1.064115  0.019530
       Atomic Center    8 is at   3.823267  1.065982  1.051850
       Atomic Center    9 is at   3.902418 -1.543560  0.292452
       Atomic Center   10 is at   2.897787  0.741189  0.594351
       Atomic Center   11 is at   1.953988  2.647294  0.863709
       Atomic Center   12 is at   3.766352 -2.442129 -0.307672
       Atomic Center   13 is at   3.986174 -1.837982  1.335361
       Atomic Center   14 is at   2.753880 -0.574604  0.124257
       Atomic Center   15 is at   1.830160  1.643999  0.482566
       Atomic Center   16 is at  -0.088337  3.295532 -0.102932
       Atomic Center   17 is at   1.538379 -0.980026 -0.465439
       Atomic Center   18 is at   0.612009  1.252055 -0.106564
       Atomic Center   19 is at   1.427953 -1.996019 -0.815386
       Atomic Center   20 is at  -0.493846  2.286242 -0.181244
       Atomic Center   21 is at   0.458203 -0.075887 -0.588121
       Atomic Center   22 is at  -1.046781  2.235730 -1.116828
       Atomic Center   23 is at  -1.185542  2.144561  0.648621
       Atomic Center   24 is at  -1.245083  0.199529 -1.896982
       Atomic Center   25 is at  -0.574312 -1.397798 -1.903454
       Atomic Center   26 is at  -0.830120 -0.568505 -1.244533
       Atomic Center   27 is at  -1.828228 -1.063762 -0.304141
       Atomic Center   28 is at  -1.734001 -2.031185 -0.004347
      ESP Fit Center   29 is at  -4.582523 -0.427800  3.214974
      ESP Fit Center   30 is at  -4.365115 -0.051239  3.157729
      ESP Fit Center   31 is at  -4.799931 -0.051239  3.157729
      ESP Fit Center   32 is at  -5.017339 -0.427800  3.157729
      ESP Fit Center   33 is at  -4.799931 -0.804362  3.157729
      ESP Fit Center   34 is at  -4.162523  0.299661  2.989896
      ESP Fit Center   35 is at  -4.582523  0.412200  2.989896
      ESP Fit Center   36 is at  -5.002523  0.299661  2.989896
      ESP Fit Center   37 is at  -5.309985 -0.007800  2.989896
      ESP Fit Center   38 is at  -5.422523 -0.427800  2.989896
      ESP Fit Center   39 is at  -5.309985 -0.847800  2.989896
      ESP Fit Center   40 is at  -5.002523 -1.155262  2.989896
      ESP Fit Center   41 is at  -4.053013  0.635599  2.722913
      ESP Fit Center   42 is at  -4.472914  0.755071  2.722913
      ESP Fit Center   43 is at  -4.907619  0.714790  2.722913
      ESP Fit Center   44 is at  -5.298417  0.520196  2.722913
      ESP Fit Center   45 is at  -5.592530  0.197569  2.722913
      ESP Fit Center   46 is at  -5.750236 -0.209517  2.722913
      ESP Fit Center   47 is at  -5.750236 -0.646084  2.722913
      ESP Fit Center   48 is at  -5.592530 -1.053170  2.722913
      ESP Fit Center   49 is at  -5.298417 -1.375796  2.722913
      ESP Fit Center   50 is at  -3.675394  0.709704  2.374974
      ESP Fit Center   51 is at  -4.050981  0.926549  2.374974
      ESP Fit Center   52 is at  -4.473797  1.023054  2.374974
      ESP Fit Center   53 is at  -4.906274  0.990644  2.374974
      ESP Fit Center   54 is at  -5.309985  0.832200  2.374974
      ESP Fit Center   55 is at  -5.649057  0.561798  2.374974
      ESP Fit Center   56 is at  -5.893364  0.203467  2.374974
      ESP Fit Center   57 is at  -6.021196 -0.210955  2.374974
      ESP Fit Center   58 is at  -6.021196 -0.644645  2.374974
      ESP Fit Center   59 is at  -5.893364 -1.059068  2.374974
      ESP Fit Center   60 is at  -5.649057 -1.417399  2.374974
      ESP Fit Center   61 is at  -3.771146  0.977547  1.969789
      ESP Fit Center   62 is at  -4.162523  1.139661  1.969789
      ESP Fit Center   63 is at  -4.582523  1.194955  1.969789
      ESP Fit Center   64 is at  -5.002523  1.139661  1.969789
      ESP Fit Center   65 is at  -5.393901  0.977547  1.969789
      ESP Fit Center   66 is at  -5.729985  0.719661  1.969789
      ESP Fit Center   67 is at  -5.987871  0.383577  1.969789
      ESP Fit Center   68 is at  -6.149985 -0.007800  1.969789
      ESP Fit Center   69 is at  -6.205279 -0.427800  1.969789
      ESP Fit Center   70 is at  -6.149985 -0.847800  1.969789
      ESP Fit Center   71 is at  -5.987871 -1.239178  1.969789
      ESP Fit Center   72 is at  -5.729985 -1.575262  1.969789
      ESP Fit Center   73 is at  -4.063375  1.169975  1.534974
      ESP Fit Center   74 is at  -4.477035  1.248885  1.534974
      ESP Fit Center   75 is at  -4.897324  1.222442  1.534974
      ESP Fit Center   76 is at  -5.297833  1.092309  1.534974
      ESP Fit Center   77 is at  -5.653396  0.866662  1.534974
      ESP Fit Center   78 is at  -5.941672  0.559679  1.534974
      ESP Fit Center   79 is at  -6.144548  0.190649  1.534974
      ESP Fit Center   80 is at  -6.249276 -0.217241  1.534974
      ESP Fit Center   81 is at  -6.249276 -0.638360  1.534974
      ESP Fit Center   82 is at  -6.144548 -1.046250  1.534974
      ESP Fit Center   83 is at  -5.941672 -1.415280  1.534974
      ESP Fit Center   84 is at  -4.582523  1.194955  1.100158
      ESP Fit Center   85 is at  -5.002523  1.139661  1.100158
      ESP Fit Center   86 is at  -5.393901  0.977547  1.100158
      ESP Fit Center   87 is at  -5.729985  0.719661  1.100158
      ESP Fit Center   88 is at  -5.987871  0.383577  1.100158
      ESP Fit Center   89 is at  -6.149985 -0.007800  1.100158
      ESP Fit Center   90 is at  -6.205279 -0.427800  1.100158
      ESP Fit Center   91 is at  -6.149985 -0.847800  1.100158
      ESP Fit Center   92 is at  -5.987871 -1.239178  1.100158
      ESP Fit Center   93 is at  -4.906274  0.990644  0.694974
      ESP Fit Center   94 is at  -5.309985  0.832200  0.694974
      ESP Fit Center   95 is at  -5.649057  0.561798  0.694974
      ESP Fit Center   96 is at  -5.893364  0.203467  0.694974
      ESP Fit Center   97 is at  -6.021196 -0.210955  0.694974
      ESP Fit Center   98 is at  -6.021196 -0.644645  0.694974
      ESP Fit Center   99 is at  -5.893364 -1.059068  0.694974
      ESP Fit Center  100 is at  -5.298417  0.520196  0.347034
      ESP Fit Center  101 is at  -5.592530  0.197569  0.347034
      ESP Fit Center  102 is at  -5.750236 -0.209517  0.347034
      ESP Fit Center  103 is at  -5.750236 -0.646084  0.347034
      ESP Fit Center  104 is at  -5.309985 -0.007800  0.080051
      ESP Fit Center  105 is at  -5.422523 -0.427800  0.080051
      ESP Fit Center  106 is at  -4.159048 -0.374552  3.170444
      ESP Fit Center  107 is at  -4.560865 -1.070520  3.170444
      ESP Fit Center  108 is at  -4.453199 -1.472338  3.170444
      ESP Fit Center  109 is at  -3.649581  0.091200  2.976383
      ESP Fit Center  110 is at  -4.904062 -1.284900  2.976383
      ESP Fit Center  111 is at  -4.749176 -1.684707  2.976383
      ESP Fit Center  112 is at  -4.460322 -2.001565  2.976383
      ESP Fit Center  113 is at  -3.140370  0.280214  2.715221
      ESP Fit Center  114 is at  -3.545903  0.399290  2.715221
      ESP Fit Center  115 is at  -5.182004 -1.488872  2.715221
      ESP Fit Center  116 is at  -5.006428 -1.873331  2.715221
      ESP Fit Center  117 is at  -4.729649 -2.192751  2.715221
      ESP Fit Center  118 is at  -4.374090 -2.421255  2.715221
      ESP Fit Center  119 is at  -2.765340  0.366481  2.396994
      ESP Fit Center  120 is at  -3.138059  0.562099  2.396994
      ESP Fit Center  121 is at  -3.546763  0.662835  2.396994
      ESP Fit Center  122 is at  -5.303313 -1.881967  2.396994
      ESP Fit Center  123 is at  -5.064194 -2.228389  2.396994
      ESP Fit Center  124 is at  -4.749120 -2.507521  2.396994
      ESP Fit Center  125 is at  -4.376401 -2.703139  2.396994
      ESP Fit Center  126 is at  -3.967697 -2.803875  2.396994
      ESP Fit Center  127 is at  -2.848449  0.643623  2.033932
      ESP Fit Center  128 is at  -3.238186  0.798908  2.033932
      ESP Fit Center  129 is at  -5.595816 -1.690012  2.033932
      ESP Fit Center  130 is at  -5.419659 -2.070770  2.033932
      ESP Fit Center  131 is at  -5.722422 -1.687103  1.639986
      ESP Fit Center  132 is at  -3.041903 -3.001960  1.639986
      ESP Fit Center  133 is at  -2.590533 -2.816606  1.230297
      ESP Fit Center  134 is at  -5.686004 -1.280287  0.426661
      ESP Fit Center  135 is at  -5.452578 -0.652654  0.063599
      ESP Fit Center  136 is at  -5.503316 -1.070520  0.063599
      ESP Fit Center  137 is at  -5.006428 -0.267710 -0.254628
      ESP Fit Center  138 is at  -5.182004 -0.652169 -0.254628
      ESP Fit Center  139 is at  -5.242154 -1.070520 -0.254628
      ESP Fit Center  140 is at  -4.904062 -0.856140 -0.515790
      ESP Fit Center  141 is at  -4.904062 -1.284900 -0.515790
      ESP Fit Center  142 is at  -4.572319 -2.726379  2.271746
      ESP Fit Center  143 is at  -5.162325 -2.624287  2.004763
      ESP Fit Center  144 is at  -4.868212 -2.946914  2.004763
      ESP Fit Center  145 is at  -4.477414 -3.141508  2.004763
      ESP Fit Center  146 is at  -4.042709 -3.181789  2.004763
      ESP Fit Center  147 is at  -3.622809 -3.062317  2.004763
      ESP Fit Center  148 is at  -5.590991 -2.215763  1.656823
      ESP Fit Center  149 is at  -5.463159 -2.630185  1.656823
      ESP Fit Center  150 is at  -5.218852 -2.988516  1.656823
      ESP Fit Center  151 is at  -4.879780 -3.258918  1.656823
      ESP Fit Center  152 is at  -4.476069 -3.417362  1.656823
      ESP Fit Center  153 is at  -4.043592 -3.449772  1.656823
      ESP Fit Center  154 is at  -3.620776 -3.353267  1.656823
      ESP Fit Center  155 is at  -3.245189 -3.136422  1.656823
      ESP Fit Center  156 is at  -5.775074 -1.998918  1.251639
      ESP Fit Center  157 is at  -5.719780 -2.418918  1.251639
      ESP Fit Center  158 is at  -5.557666 -2.810295  1.251639
      ESP Fit Center  159 is at  -5.299780 -3.146379  1.251639
      ESP Fit Center  160 is at  -4.963696 -3.404265  1.251639
      ESP Fit Center  161 is at  -4.572319 -3.566379  1.251639
      ESP Fit Center  162 is at  -4.152319 -3.621673  1.251639
      ESP Fit Center  163 is at  -3.732319 -3.566379  1.251639
      ESP Fit Center  164 is at  -3.340941 -3.404265  1.251639
      ESP Fit Center  165 is at  -3.004857 -3.146379  1.251639
      ESP Fit Center  166 is at  -5.819071 -1.788358  0.816823
      ESP Fit Center  167 is at  -5.819071 -2.209477  0.816823
      ESP Fit Center  168 is at  -5.714343 -2.617367  0.816823
      ESP Fit Center  169 is at  -5.511467 -2.986397  0.816823
      ESP Fit Center  170 is at  -5.223191 -3.293380  0.816823
      ESP Fit Center  171 is at  -4.867628 -3.519027  0.816823
      ESP Fit Center  172 is at  -4.467119 -3.649160  0.816823
      ESP Fit Center  173 is at  -4.046831 -3.675603  0.816823
      ESP Fit Center  174 is at  -3.633170 -3.596693  0.816823
      ESP Fit Center  175 is at  -3.252130 -3.417389  0.816823
      ESP Fit Center  176 is at  -2.927651 -3.148957  0.816823
      ESP Fit Center  177 is at  -5.719780 -1.578918  0.382007
      ESP Fit Center  178 is at  -5.775074 -1.998918  0.382007
      ESP Fit Center  179 is at  -5.719780 -2.418918  0.382007
      ESP Fit Center  180 is at  -5.557666 -2.810295  0.382007
      ESP Fit Center  181 is at  -5.299780 -3.146379  0.382007
      ESP Fit Center  182 is at  -4.963696 -3.404265  0.382007
      ESP Fit Center  183 is at  -4.572319 -3.566379  0.382007
      ESP Fit Center  184 is at  -4.152319 -3.621673  0.382007
      ESP Fit Center  185 is at  -3.732319 -3.566379  0.382007
      ESP Fit Center  186 is at  -3.340941 -3.404265  0.382007
      ESP Fit Center  187 is at  -3.004857 -3.146379  0.382007
      ESP Fit Center  188 is at  -5.463159 -1.367650 -0.023177
      ESP Fit Center  189 is at  -5.590991 -1.782073 -0.023177
      ESP Fit Center  190 is at  -5.590991 -2.215763 -0.023177
      ESP Fit Center  191 is at  -5.463159 -2.630185 -0.023177
      ESP Fit Center  192 is at  -5.218852 -2.988516 -0.023177
      ESP Fit Center  193 is at  -4.879780 -3.258918 -0.023177
      ESP Fit Center  194 is at  -4.476069 -3.417362 -0.023177
      ESP Fit Center  195 is at  -4.043592 -3.449772 -0.023177
      ESP Fit Center  196 is at  -3.620776 -3.353267 -0.023177
      ESP Fit Center  197 is at  -3.245189 -3.136422 -0.023177
      ESP Fit Center  198 is at  -5.162325 -1.373548 -0.371116
      ESP Fit Center  199 is at  -5.320031 -1.780634 -0.371116
      ESP Fit Center  200 is at  -5.320031 -2.217201 -0.371116
      ESP Fit Center  201 is at  -5.162325 -2.624287 -0.371116
      ESP Fit Center  202 is at  -4.868212 -2.946914 -0.371116
      ESP Fit Center  203 is at  -4.477414 -3.141508 -0.371116
      ESP Fit Center  204 is at  -4.042709 -3.181789 -0.371116
      ESP Fit Center  205 is at  -3.622809 -3.062317 -0.371116
      ESP Fit Center  206 is at  -3.274421 -2.799227 -0.371116
      ESP Fit Center  207 is at  -4.879780 -1.578918 -0.638099
      ESP Fit Center  208 is at  -4.992319 -1.998918 -0.638099
      ESP Fit Center  209 is at  -4.879780 -2.418918 -0.638099
      ESP Fit Center  210 is at  -4.572319 -2.726379 -0.638099
      ESP Fit Center  211 is at  -4.152319 -2.838918 -0.638099
      ESP Fit Center  212 is at  -3.732319 -2.726379 -0.638099
      ESP Fit Center  213 is at  -3.424857 -2.418918 -0.638099
      ESP Fit Center  214 is at  -4.369727 -1.622356 -0.805932
      ESP Fit Center  215 is at  -4.587135 -1.998918 -0.805932
      ESP Fit Center  216 is at  -4.369727 -2.375479 -0.805932
      ESP Fit Center  217 is at  -3.934911 -2.375479 -0.805932
      ESP Fit Center  218 is at  -4.152319 -1.998918 -0.863177
      ESP Fit Center  219 is at  -3.132514 -1.295375  3.774508
      ESP Fit Center  220 is at  -2.697698 -1.295375  3.717263
      ESP Fit Center  221 is at  -2.915106 -0.918813  3.717263
      ESP Fit Center  222 is at  -3.349922 -0.918813  3.717263
      ESP Fit Center  223 is at  -3.567330 -1.295375  3.717263
      ESP Fit Center  224 is at  -3.349922 -1.671936  3.717263
      ESP Fit Center  225 is at  -2.915106 -1.671936  3.717263
      ESP Fit Center  226 is at  -2.292514 -1.295375  3.549430
      ESP Fit Center  227 is at  -2.405053 -0.875375  3.549430
      ESP Fit Center  228 is at  -2.712514 -0.567913  3.549430
      ESP Fit Center  229 is at  -3.132514 -0.455375  3.549430
      ESP Fit Center  230 is at  -3.552514 -0.567913  3.549430
      ESP Fit Center  231 is at  -3.859976 -0.875375  3.549430
      ESP Fit Center  232 is at  -3.972514 -1.295375  3.549430
      ESP Fit Center  233 is at  -3.859976 -1.715375  3.549430
      ESP Fit Center  234 is at  -3.552514 -2.022836  3.549430
      ESP Fit Center  235 is at  -3.132514 -2.135375  3.549430
      ESP Fit Center  236 is at  -2.712514 -2.022836  3.549430
      ESP Fit Center  237 is at  -2.405053 -1.715375  3.549430
      ESP Fit Center  238 is at  -1.944575 -1.295375  3.282447
      ESP Fit Center  239 is at  -2.024794 -0.866241  3.282447
      ESP Fit Center  240 is at  -2.254617 -0.495065  3.282447
      ESP Fit Center  241 is at  -2.603004 -0.231975  3.282447
      ESP Fit Center  242 is at  -3.022905 -0.112503  3.282447
      ESP Fit Center  243 is at  -3.457609 -0.152784  3.282447
      ESP Fit Center  244 is at  -3.848408 -0.347378  3.282447
      ESP Fit Center  245 is at  -4.142521 -0.670005  3.282447
      ESP Fit Center  246 is at  -4.300227 -1.077091  3.282447
      ESP Fit Center  247 is at  -4.300227 -1.513658  3.282447
      ESP Fit Center  248 is at  -4.142521 -1.920744  3.282447
      ESP Fit Center  249 is at  -3.848408 -2.243371  3.282447
      ESP Fit Center  250 is at  -3.457609 -2.437965  3.282447
      ESP Fit Center  251 is at  -3.022905 -2.478246  3.282447
      ESP Fit Center  252 is at  -2.603004 -2.358774  3.282447
      ESP Fit Center  253 is at  -2.254617 -2.095684  3.282447
      ESP Fit Center  254 is at  -2.024794 -1.724508  3.282447
      ESP Fit Center  255 is at  -1.677592 -1.295375  2.934508
      ESP Fit Center  256 is at  -1.742230 -0.866529  2.934508
      ESP Fit Center  257 is at  -1.930401 -0.475787  2.934508
      ESP Fit Center  258 is at  -2.225385 -0.157870  2.934508
      ESP Fit Center  259 is at  -2.600971  0.058975  2.934508
      ESP Fit Center  260 is at  -3.023788  0.155480  2.934508
      ESP Fit Center  261 is at  -3.456265  0.123070  2.934508
      ESP Fit Center  262 is at  -4.199048 -2.284973  2.934508
      ESP Fit Center  263 is at  -3.859976 -2.555375  2.934508
      ESP Fit Center  264 is at  -3.456265 -2.713819  2.934508
      ESP Fit Center  265 is at  -3.023788 -2.746229  2.934508
      ESP Fit Center  266 is at  -2.600971 -2.649724  2.934508
      ESP Fit Center  267 is at  -2.225385 -2.432879  2.934508
      ESP Fit Center  268 is at  -1.930401 -2.114962  2.934508
      ESP Fit Center  269 is at  -1.742230 -1.724221  2.934508
      ESP Fit Center  270 is at  -1.509759 -1.295375  2.529324
      ESP Fit Center  271 is at  -1.565053 -0.875375  2.529324
      ESP Fit Center  272 is at  -1.727167 -0.483997  2.529324
      ESP Fit Center  273 is at  -1.985053 -0.147913  2.529324
      ESP Fit Center  274 is at  -2.321137  0.109973  2.529324
      ESP Fit Center  275 is at  -2.712514  0.272087  2.529324
      ESP Fit Center  276 is at  -3.552514 -2.862836  2.529324
      ESP Fit Center  277 is at  -3.132514 -2.918130  2.529324
      ESP Fit Center  278 is at  -2.712514 -2.862836  2.529324
      ESP Fit Center  279 is at  -2.321137 -2.700722  2.529324
      ESP Fit Center  280 is at  -1.985053 -2.442836  2.529324
      ESP Fit Center  281 is at  -1.727167 -2.106752  2.529324
      ESP Fit Center  282 is at  -1.565053 -1.715375  2.529324
      ESP Fit Center  283 is at  -1.452514 -1.295375  2.094508
      ESP Fit Center  284 is at  -1.505295 -0.877576  2.094508
      ESP Fit Center  285 is at  -1.660319 -0.486028  2.094508
      ESP Fit Center  286 is at  -1.907847 -0.145335  2.094508
      ESP Fit Center  287 is at  -2.232325  0.123096  2.094508
      ESP Fit Center  288 is at  -3.027026 -2.972059  2.094508
      ESP Fit Center  289 is at  -2.613366 -2.893150  2.094508
      ESP Fit Center  290 is at  -2.232325 -2.713845  2.094508
      ESP Fit Center  291 is at  -1.907847 -2.445414  2.094508
      ESP Fit Center  292 is at  -1.660319 -2.104721  2.094508
      ESP Fit Center  293 is at  -1.505295 -1.713174  2.094508
      ESP Fit Center  294 is at  -2.712514 -2.862836  1.659692
      ESP Fit Center  295 is at  -2.321137 -2.700722  1.659692
      ESP Fit Center  296 is at  -1.985053 -2.442836  1.659692
      ESP Fit Center  297 is at  -1.717736 -0.383276  1.902260
      ESP Fit Center  298 is at  -1.796520  0.038184  1.902260
      ESP Fit Center  299 is at  -2.022234  0.402723  1.902260
      ESP Fit Center  300 is at  -2.364392  0.661109  1.902260
      ESP Fit Center  301 is at  -2.776784  0.778445  1.902260
      ESP Fit Center  302 is at  -1.399509 -0.383276  1.641098
      ESP Fit Center  303 is at  -1.459659  0.035076  1.641098
      ESP Fit Center  304 is at  -1.635236  0.419535  1.641098
      ESP Fit Center  305 is at  -1.912015  0.738955  1.641098
      ESP Fit Center  306 is at  -2.267574  0.967459  1.641098
      ESP Fit Center  307 is at  -2.673107  1.086534  1.641098
      ESP Fit Center  308 is at  -1.338351  0.428171  1.322872
      ESP Fit Center  309 is at  -4.813207 -0.593043 -0.647461
      ESP Fit Center  310 is at  -4.723020 -1.002768 -0.647461
      ESP Fit Center  311 is at  -4.630520 -0.383276 -1.010523
      ESP Fit Center  312 is at  -4.579782 -0.801142 -1.010523
      ESP Fit Center  313 is at  -4.430516 -1.194722 -1.010523
      ESP Fit Center  314 is at  -4.191398 -1.541145 -1.010523
      ESP Fit Center  315 is at  -3.876323 -1.820277 -1.010523
      ESP Fit Center  316 is at  -4.369358 -0.383276 -1.328750
      ESP Fit Center  317 is at  -4.309208 -0.801627 -1.328750
      ESP Fit Center  318 is at  -4.133631 -1.186086 -1.328750
      ESP Fit Center  319 is at  -3.856852 -1.505507 -1.328750
      ESP Fit Center  320 is at  -4.031266 -0.597656 -1.589912
      ESP Fit Center  321 is at  -3.876380 -0.997463 -1.589912
      ESP Fit Center  322 is at  -3.587526 -1.314320 -1.589912
      ESP Fit Center  323 is at  -3.688069 -0.383276 -1.783973
      ESP Fit Center  324 is at  -3.580402 -0.785093 -1.783973
      ESP Fit Center  325 is at  -3.294123 -0.383276 -1.903475
      ESP Fit Center  326 is at  -2.974322  1.101209  1.685424
      ESP Fit Center  327 is at  -3.381829  1.101209  1.685424
      ESP Fit Center  328 is at  -2.487676  1.146899  1.558804
      ESP Fit Center  329 is at  -2.779473  1.438696  1.558804
      ESP Fit Center  330 is at  -3.178075  1.545501  1.558804
      ESP Fit Center  331 is at  -3.576677  1.438696  1.558804
      ESP Fit Center  332 is at  -3.868474  1.146899  1.558804
      ESP Fit Center  333 is at  -3.071776  1.895442  1.353928
      ESP Fit Center  334 is at  -3.493351  1.856378  1.353928
      ESP Fit Center  335 is at  -3.872346  1.667661  1.353928
      ESP Fit Center  336 is at  -4.157575  1.354778  1.353928
[...]
 6813 Fit       0.009084
 6814 Fit       0.007909
 6815 Fit       0.006971
 6816 Fit       0.006142
 6817 Fit       0.005350
 6818 Fit       0.004571
 6819 Fit       0.003820
 6820 Fit       0.003152
 6821 Fit       0.008866
 6822 Fit       0.007721
 6823 Fit       0.006817
 6824 Fit       0.006016
 6825 Fit       0.005248
 6826 Fit       0.004483
 6827 Fit       0.003727
 6828 Fit       0.003010
 6829 Fit       0.009200
 6830 Fit       0.007908
 6831 Fit       0.006949
 6832 Fit       0.006135
 6833 Fit       0.005369
 6834 Fit       0.004606
 6835 Fit       0.003832
 6836 Fit       0.003060
 6837 Fit       0.002324
 6838 Fit       0.009048
 6839 Fit       0.007757
 6840 Fit       0.006820
 6841 Fit       0.006040
 6842 Fit       0.005316
 6843 Fit       0.004593
 6844 Fit       0.003851
 6845 Fit       0.003087
 6846 Fit       0.002318
 6847 Fit       0.008152
 6848 Fit       0.007076
 6849 Fit       0.006267
 6850 Fit       0.005573
 6851 Fit       0.004912
 6852 Fit       0.004241
 6853 Fit       0.003539
 6854 Fit       0.002803
 6855 Fit       0.002043
 6856 Fit       0.006596
 6857 Fit       0.005875
 6858 Fit       0.005260
 6859 Fit       0.004674
 6860 Fit       0.004073
 6861 Fit       0.003431
 6862 Fit       0.002741
 6863 Fit       0.002006
 6864 Fit       0.005241
 6865 Fit       0.004898
 6866 Fit       0.004503
 6867 Fit       0.004066
 6868 Fit       0.003575
 6869 Fit       0.003019
 6870 Fit       0.002395
 6871 Fit       0.001712
 6872 Fit       0.003258
 6873 Fit       0.003321
 6874 Fit       0.003168
 6875 Fit       0.002874
 6876 Fit       0.002469
 6877 Fit       0.001971
 6878 Fit       0.001398
 6879 Fit       0.001737
 6880 Fit       0.001957
 6881 Fit       0.001893
 6882 Fit       0.001641
 6883 Fit      -0.000139
 6884 Fit       0.000912
 6885 Fit       0.005006
 6886 Fit       0.005202
 6887 Fit       0.003235
 6888 Fit       0.009071
 6889 Fit       0.006113
 6890 Fit       0.003943
 6891 Fit       0.009437
 6892 Fit       0.006833
 6893 Fit       0.005339
 6894 Fit       0.011044
 6895 Fit       0.008609
 6896 Fit       0.007339
 6897 Fit       0.014337
 6898 Fit       0.011110
 6899 Fit       0.009355
 6900 Fit       0.008617
 6901 Fit       0.013185
 6902 Fit       0.011113
 6903 Fit       0.010036
 6904 Fit       0.009733
 6905 Fit       0.012991
 6906 Fit      -0.014319
 6907 Fit       0.004286
 6908 Fit      -0.005657
 6909 Fit      -0.008421
 6910 Fit      -0.010700
 6911 Fit      -0.012216
 6912 Fit      -0.012864
 6913 Fit       0.002104
 6914 Fit       0.001014
 6915 Fit      -0.000573
 6916 Fit      -0.002871
 6917 Fit      -0.005980
 6918 Fit      -0.008303
 6919 Fit      -0.010040
 6920 Fit      -0.010860
 6921 Fit       0.001758
 6922 Fit       0.001505
 6923 Fit       0.000872
 6924 Fit      -0.000137
 6925 Fit      -0.001587
 6926 Fit      -0.003583
 6927 Fit      -0.005964
 6928 Fit      -0.007954
 6929 Fit      -0.008911
 6930 Fit      -0.001001
 6931 Fit      -0.000578
 6932 Fit      -0.000923
 6933 Fit      -0.001991
 6934 Fit      -0.003748
 6935 Fit      -0.005611
 6936 Fit      -0.006932
 6937 Fit      -0.005900
 6938 Fit      -0.003792
 6939 Fit      -0.002790
 6940 Fit      -0.003585
 6941 Fit      -0.004898
 6942 Fit      -0.000984
 6943 Fit      -0.000381
 6944 Fit       0.000597
 6945 Fit       0.001556
 6946 Fit       0.001748
 6947 Fit      -0.000080
 6948 Fit       0.004002
 6949 Fit       0.005408
 6950 Fit       0.005648
 6951 Fit       0.003390
 6952 Fit      -0.000917
 6953 Fit      -0.007831
 6954 Fit      -0.014490
 6955 Fit      -0.012782
 6956 Fit      -0.010689
 6957 Fit      -0.008410
 6958 Fit      -0.006134
 6959 Fit      -0.012788
 6960 Fit      -0.011124
 6961 Fit      -0.009036
 6962 Fit      -0.006741
 6963 Fit      -0.010959
 6964 Fit      -0.009183
 6965 Fit      -0.006832
 6966 Fit      -0.006782
 6967 Fit      -0.004388
 6968 Fit       0.012475
 6969 Fit       0.011474
 6970 Fit       0.010967
 6971 Fit       0.010888
 6972 Fit       0.012558
 6973 Fit       0.011803
 6974 Fit       0.011326
 6975 Fit       0.011089
 6976 Fit       0.011091
 6977 Fit       0.011786
 6978 Fit       0.011480
 6979 Fit       0.011228
 6980 Fit       0.011075
 6981 Fit       0.011028
 6982 Fit       0.011103
 6983 Fit       0.010849
 6984 Fit       0.010910
 6985 Fit       0.010889
 6986 Fit       0.010861
 6987 Fit       0.010848
 6988 Fit       0.010854
 6989 Fit       0.010876
 6990 Fit       0.010206
 6991 Fit       0.010356
 6992 Fit       0.010454
 6993 Fit       0.010517
 6994 Fit       0.010549
 6995 Fit       0.010545
 6996 Fit       0.010488
 6997 Fit       0.010327
 6998 Fit       0.009778
 6999 Fit       0.009928
 7000 Fit       0.010053
 7001 Fit       0.010129
 7002 Fit       0.010143
 7003 Fit       0.010082
 7004 Fit       0.009924
 7005 Fit       0.009314
 7006 Fit       0.009437
 7007 Fit       0.009558
 7008 Fit       0.009619
 7009 Fit       0.009600
 7010 Fit       0.009498
 7011 Fit       0.009328
 7012 Fit       0.008777
 7013 Fit       0.008858
 7014 Fit       0.008943
 7015 Fit       0.008962
 7016 Fit       0.008899
 7017 Fit       0.008774
 7018 Fit       0.008672
 7019 Fit       0.008097
 7020 Fit       0.008148
 7021 Fit       0.008149
 7022 Fit       0.008055
 7023 Fit       0.007885
 7024 Fit       0.007724
 7025 Fit       0.007217
 7026 Fit       0.007205
 7027 Fit       0.007160
 7028 Fit       0.006992
 7029 Fit       0.006686
 7030 Fit       0.006242
 7031 Fit       0.006094
 7032 Fit       0.006021
 7033 Fit       0.005772
 7034 Fit       0.005244
 7035 Fit       0.004317
 7036 Fit       0.004707
 7037 Fit       0.004499
 7038 Fit       0.003760
 7039 Fit       0.002988
 7040 Fit       0.002264
 7041 Fit       0.002418
 7042 Fit       0.001410
 7043 Fit       0.002461
 7044 Fit       0.002984
 7045 Fit       0.003396
 7046 Fit       0.002942
 7047 Fit       0.001392
 7048 Fit       0.002126
 7049 Fit       0.003015
 7050 Fit       0.003182
 7051 Fit       0.003246
 7052 Fit       0.003654
 7053 Fit       0.004096
 7054 Fit       0.002053
 7055 Fit       0.003489
 7056 Fit       0.003305
 7057 Fit       0.003550
 7058 Fit       0.003433
 7059 Fit       0.003191
 7060 Fit       0.002938
 7061 Fit       0.002715
 7062 Fit       0.002465
 7063 Fit       0.002530
 7064 Fit       0.002010
 7065 Fit       0.001866
 7066 Fit       0.002073
 7067 Fit       0.001448
 7068 Fit       0.001129
 7069 Fit       0.001535
 7070 Fit       0.000843
 7071 Fit       0.000367
 7072 Fit       0.000690
 7073 Fit      -0.000003
 7074 Fit      -0.000578
 7075 Fit      -0.001061
 7076 Fit       0.000943
 7077 Fit       0.000101
 7078 Fit      -0.000666
 7079 Fit      -0.001404
 7080 Fit      -0.002158
 7081 Fit      -0.002974
 7082 Fit       0.001225
 7083 Fit       0.000374
 7084 Fit      -0.000437
 7085 Fit      -0.001253
 7086 Fit      -0.002129
 7087 Fit      -0.003127
 7088 Fit      -0.004321
 7089 Fit       0.000621
 7090 Fit      -0.000110
 7091 Fit      -0.000869
 7092 Fit      -0.001704
 7093 Fit      -0.002677
 7094 Fit      -0.003862
 7095 Fit      -0.005352
 7096 Fit      -0.007279
 7097 Fit      -0.009826
 7098 Fit       0.000977
 7099 Fit       0.000414
 7100 Fit      -0.000196
 7101 Fit      -0.000879
 7102 Fit      -0.001686
 7103 Fit      -0.002685
 7104 Fit      -0.003959
 7105 Fit      -0.005615
 7106 Fit      -0.007798
 7107 Fit      -0.010715
 7108 Fit      -0.014644
 7109 Fit      -0.000459
 7110 Fit       0.000497
 7111 Fit       0.000961
 7112 Fit       0.001115
 7113 Fit       0.001059
 7114 Fit       0.000858
 7115 Fit       0.000554
 7116 Fit       0.000166
 7117 Fit      -0.000313
 7118 Fit      -0.016499
 7119 Fit      -0.002854
 7120 Fit      -0.001305
 7121 Fit      -0.000392
 7122 Fit       0.000105
 7123 Fit       0.000335
 7124 Fit       0.000385
 7125 Fit      -0.004814
 7126 Fit      -0.002819
 7127 Fit      -0.001505
 7128 Fit      -0.000680
 7129 Fit      -0.004020
 7130 Fit      -0.002405
 7131 Fit       0.000002
 7132 Fit      -0.014280
 7133 Fit      -0.012358
 7134 Fit      -0.011832
 7135 Fit      -0.010515
 7136 Fit      -0.010205
 7137 Fit      -0.009403
 7138 Fit      -0.007745
 7139 Fit      -0.005510
 7140 Fit      -0.008042
 7141 Fit      -0.007986
 7142 Fit      -0.006676
 7143 Fit      -0.004679
 7144 Fit      -0.004574
 7145 Fit      -0.006750
 7146 Fit      -0.006122
 7147 Fit      -0.005569
 7148 Fit      -0.000341
 7149 Fit      -0.000990
 7150 Fit      -0.001839
 7151 Fit      -0.002952
 7152 Fit      -0.004417
 7153 Fit      -0.006351
 7154 Fit      -0.008898
 7155 Fit      -0.012209
 7156 Fit      -0.016311
 7157 Fit       0.000245
 7158 Fit       0.000065
 7159 Fit      -0.000290
 7160 Fit      -0.000835
 7161 Fit      -0.001605
 7162 Fit      -0.002658
 7163 Fit      -0.004073
 7164 Fit      -0.005949
 7165 Fit      -0.008400
 7166 Fit      -0.011500
 7167 Fit      -0.015118
 7168 Fit      -0.000750
 7169 Fit      -0.000257
 7170 Fit      -0.000038
 7171 Fit      -0.000044
 7172 Fit      -0.000255
 7173 Fit      -0.000676
 7174 Fit      -0.001334
 7175 Fit      -0.002272
 7176 Fit      -0.003547
 7177 Fit      -0.005228
 7178 Fit      -0.007365
 7179 Fit      -0.009922
 7180 Fit      -0.012591
 7181 Fit      -0.005488
 7182 Fit      -0.003739
 7183 Fit      -0.002306
 7184 Fit      -0.001279
 7185 Fit      -0.000626
 7186 Fit      -0.000288
 7187 Fit      -0.000221
 7188 Fit      -0.000407
 7189 Fit      -0.000853
 7190 Fit      -0.001585
 7191 Fit      -0.002645
 7192 Fit      -0.004069
 7193 Fit      -0.005856
 7194 Fit      -0.007874
 7195 Fit      -0.009672
 7196 Fit      -0.003925
 7197 Fit      -0.002738
 7198 Fit      -0.001705
 7199 Fit      -0.000963
 7200 Fit      -0.000536
 7201 Fit      -0.000410
 7202 Fit      -0.000580
 7203 Fit      -0.001053
 7204 Fit      -0.001847
 7205 Fit      -0.002970
 7206 Fit      -0.004372
 7207 Fit      -0.005852
 7208 Fit      -0.006908
 7209 Fit      -0.004945
 7210 Fit      -0.002717
 7211 Fit      -0.001914
 7212 Fit      -0.001197
 7213 Fit      -0.000752
 7214 Fit      -0.000645
 7215 Fit      -0.000896
 7216 Fit      -0.001509
 7217 Fit      -0.002449
 7218 Fit      -0.003567
 7219 Fit      -0.004477
 7220 Fit      -0.004520
 7221 Fit      -0.002132
 7222 Fit      -0.003107
 7223 Fit      -0.003254
 7224 Fit      -0.001890
 7225 Fit      -0.001348
 7226 Fit      -0.000956
 7227 Fit      -0.000981
 7228 Fit      -0.001483
 7229 Fit      -0.002308
 7230 Fit      -0.002966
 7231 Fit      -0.002758
 7232 Fit      -0.001785
 7233 Fit      -0.001313
 7234 Fit      -0.001725
 7235 Fit      -0.002107
 7236 Fit      -0.001471
 7237 Fit      -0.001207
 7238 Fit      -0.001473
 7239 Fit      -0.001976
 7240 Fit      -0.001735
 7241 Fit      -0.001553
 7242 Fit      -0.001488
 7243 Fit       0.004997
 7244 Fit       0.003903
 7245 Fit       0.004719
 7246 Fit       0.005933
 7247 Fit       0.006547
 7248 Fit       0.005128
 7249 Fit       0.003714
 7250 Fit       0.004326
 7251 Fit       0.005246
 7252 Fit       0.006499
 7253 Fit       0.007858
 7254 Fit       0.008587
 7255 Fit       0.007641
 7256 Fit       0.005050
 7257 Fit       0.003451
 7258 Fit       0.003839
 7259 Fit       0.004469
 7260 Fit       0.005391
 7261 Fit       0.006653
 7262 Fit       0.008232
 7263 Fit       0.009898
 7264 Fit       0.003109
 7265 Fit       0.003378
 7266 Fit       0.003864
 7267 Fit       0.004604
 7268 Fit       0.005674
 7269 Fit       0.007148
 7270 Fit       0.002608
 7271 Fit       0.002822
 7272 Fit       0.003227
 7273 Fit       0.003883
 7274 Fit       0.004906
 7275 Fit       0.006415
 7276 Fit       0.001900
 7277 Fit       0.001863
 7278 Fit       0.001965
 7279 Fit       0.002222
 7280 Fit       0.002724
 7281 Fit       0.003638
 7282 Fit       0.001061
 7283 Fit       0.000867
 7284 Fit       0.000759
 7285 Fit       0.000759
 7286 Fit       0.000982
 7287 Fit       0.001684
 7288 Fit      -0.000347
 7289 Fit      -0.000740
 7290 Fit      -0.001111
 7291 Fit      -0.001349
 7292 Fit      -0.001143
 7293 Fit      -0.002048
 7294 Fit      -0.002864
 7295 Fit      -0.003782
 7296 Fit      -0.004664
 7297 Fit      -0.004008
 7298 Fit      -0.005477
 7299 Fit      -0.007307
 7300 Fit      -0.007186
 7301 Fit      -0.009902
 7302 Fit      -0.019295
 7303 Fit      -0.009932
 7304 Fit      -0.016037
 7305 Fit      -0.023660
 7306 Fit      -0.006657
 7307 Fit      -0.011509
 7308 Fit      -0.017514
 7309 Fit      -0.024784
 7310 Fit      -0.002585
 7311 Fit      -0.001755
 7312 Fit      -0.001519
 7313 Fit      -0.002418
 7314 Fit      -0.004657
 7315 Fit      -0.008137
 7316 Fit      -0.012716
 7317 Fit      -0.018247
 7318 Fit      -0.024306
 7319 Fit      -0.003289
 7320 Fit      -0.003000
 7321 Fit      -0.003168
 7322 Fit      -0.004361
 7323 Fit      -0.006848
 7324 Fit      -0.010543
 7325 Fit      -0.015085
 7326 Fit      -0.019694
 7327 Fit      -0.022998
 7328 Fit      -0.023491
 7329 Fit      -0.020742
 7330 Fit      -0.004276
 7331 Fit      -0.004204
 7332 Fit      -0.004773
 7333 Fit      -0.006634
 7334 Fit      -0.009924
 7335 Fit      -0.013834
 7336 Fit      -0.016570
 7337 Fit      -0.016282
 7338 Fit      -0.013058
 7339 Fit      -0.005899
 7340 Fit      -0.006475
 7341 Fit      -0.009212
 7342 Fit      -0.011847
 7343 Fit      -0.010556
 7344 Fit      -0.007365
 7345 Fit      -0.008378
 7346 Fit       0.005614
 7347 Fit       0.007690
 7348 Fit       0.009946
 7349 Fit       0.000508
 7350 Fit       0.003098
 7351 Fit       0.005395
 7352 Fit       0.007618
 7353 Fit      -0.004242
 7354 Fit      -0.000588
 7355 Fit       0.002259
 7356 Fit       0.004673
 7357 Fit       0.006913
 7358 Fit       0.009236
 7359 Fit      -0.008198
 7360 Fit      -0.003524
 7361 Fit      -0.000070
 7362 Fit       0.002667
 7363 Fit       0.005000
 7364 Fit       0.007159
 7365 Fit      -0.014283
 7366 Fit      -0.008041
 7367 Fit      -0.003563
 7368 Fit      -0.000203
 7369 Fit       0.002447
 7370 Fit       0.004650
 7371 Fit       0.006570
 7372 Fit      -0.012631
 7373 Fit      -0.007285
 7374 Fit      -0.003281
 7375 Fit      -0.000222
 7376 Fit       0.002173
 7377 Fit       0.004075
 7378 Fit       0.005548
 7379 Fit       0.006522
 7380 Fit      -0.021980
 7381 Fit      -0.015085
 7382 Fit      -0.009466
 7383 Fit      -0.005110
 7384 Fit      -0.001790
 7385 Fit       0.000724
 7386 Fit       0.002580
 7387 Fit       0.003815
 7388 Fit       0.004333
 7389 Fit       0.003921
 7390 Fit      -0.001601
 7391 Fit      -0.021283
 7392 Fit      -0.016183
 7393 Fit      -0.011077
 7394 Fit      -0.006718
 7395 Fit      -0.003279
 7396 Fit      -0.000704
 7397 Fit       0.001087
 7398 Fit       0.002106
 7399 Fit       0.002287
 7400 Fit       0.001573
 7401 Fit       0.000114
 7402 Fit      -0.001432
 7403 Fit      -0.016514
 7404 Fit      -0.013341
 7405 Fit      -0.009333
 7406 Fit      -0.005623
 7407 Fit      -0.002700
 7408 Fit      -0.000698
 7409 Fit       0.000350
 7410 Fit       0.000439
 7411 Fit      -0.000296
 7412 Fit      -0.001993
 7413 Fit      -0.011504
 7414 Fit      -0.008946
 7415 Fit      -0.005604
 7416 Fit      -0.002910
 7417 Fit      -0.001450
 7418 Fit      -0.001282
 7419 Fit      -0.003216
 7420 Fit      -0.004655
 7421 Fit      -0.007034
 7422 Fit      -0.007817
 7423 Fit      -0.005436
 7424 Fit      -0.003263
 7425 Fit      -0.005122
 7426 Fit      -0.003531
 7427 Fit      -0.004454
 7428 Fit      -0.004876
 7429 Fit      -0.004458
 7430 Fit      -0.003504
 7431 Fit      -0.022406
 7432 Fit      -0.003229
 7433 Fit      -0.003594
 7434 Fit      -0.003906
 7435 Fit      -0.003708
 7436 Fit      -0.017206
 7437 Fit      -0.002777
 7438 Fit      -0.003671
 7439 Fit      -0.003985
 7440 Fit      -0.013161
 7441 Fit      -0.011667
 7442 Fit      -0.003268
 7443 Fit      -0.004604
 7444 Fit      -0.005358
 7445 Fit      -0.009179
 7446 Fit      -0.007404
 7447 Fit      -0.005057
 7448 Fit      -0.006403
 7449 Fit       0.011619
 7450 Fit       0.012061
 7451 Fit       0.017208
 7452 Fit       0.014630
 7453 Fit       0.014815
 7454 Fit       0.015252
 7455 Fit       0.015609
 7456 Fit       0.012197
 7457 Fit       0.012247
 7458 Fit       0.012738
 7459 Fit       0.013431
 7460 Fit       0.013994
 7461 Fit       0.009715
 7462 Fit       0.010038
 7463 Fit       0.010843
 7464 Fit       0.011954
 7465 Fit       0.007301
 7466 Fit       0.008067
 7467 Fit       0.009309
 7468 Fit       0.010963
 7469 Fit       0.004976
 7470 Fit       0.006325
 7471 Fit       0.008094
 7472 Fit       0.001687
 7473 Fit       0.003712
 7474 Fit       0.020250
 7475 Fit       0.020263
 7476 Fit       0.021793
 7477 Fit       0.018132
 7478 Fit       0.017405
 7479 Fit       0.017832
 7480 Fit       0.022703
 7481 Fit       0.021276
 7482 Fit       0.019635
 7483 Fit       0.015537
 7484 Fit       0.014479
 7485 Fit       0.014303
 7486 Fit       0.014957
 7487 Fit       0.016277
 7488 Fit       0.022873
 7489 Fit       0.021871
 7490 Fit       0.020627
 7491 Fit       0.019034
 7492 Fit       0.017210
 7493 Fit       0.012181
 7494 Fit       0.010786
 7495 Fit       0.010330
 7496 Fit       0.010796
 7497 Fit       0.011874
 7498 Fit       0.013263
 7499 Fit       0.022001
 7500 Fit       0.021180
 7501 Fit       0.020058
 7502 Fit       0.018499
 7503 Fit       0.016484
 7504 Fit       0.014233
 7505 Fit       0.007738
 7506 Fit       0.005907
 7507 Fit       0.021159
 7508 Fit       0.020488
 7509 Fit       0.019534
 7510 Fit       0.018094
 7511 Fit       0.016015
 7512 Fit       0.013330
 7513 Fit       0.010380
 7514 Fit       0.020560
 7515 Fit       0.020077
 7516 Fit       0.019547
 7517 Fit       0.018795
 7518 Fit       0.017567
 7519 Fit       0.015600
 7520 Fit       0.012724
 7521 Fit       0.018937
 7522 Fit       0.018522
 7523 Fit       0.018082
 7524 Fit       0.017305
 7525 Fit       0.015813
 7526 Fit       0.016848
 7527 Fit       0.016580
 7528 Fit       0.015791
 -----------------------------------------------------------------
 Leave Link  602 at Wed Nov 29 20:33:36 2017, MaxMem=  2147483648 cpu:         1.3

 Test job not archived.
 1\1\GINC-LAC-349\FOpt\RHF\6-31G(d)\C11H15N1O1\SONGLIN3\29-Nov-2017\0\\
 #HF/6-31G* SCF=tight Test Pop=MK iop(6/33=2) iop(6/42=6) opt\\remark l
 ine goes here\\0,1\H,19.0017453223,-12.3697200469,20.136228134\C,18.38
 8859789,-11.7809895637,20.8045647557\H,18.9651670119,-10.9140667532,21
 .1118172107\H,18.1467922171,-12.3646414304,21.6851194684\C,17.16215740
 99,-11.3094131241,20.0515536262\O,17.2088200421,-11.0136811987,18.8883
 037213\H,10.7360071362,-9.6590079093,24.3975375941\H,10.629744398,-11.
 837805237,23.3967790872\C,11.5337799115,-9.2787530664,23.7702251626\C,
 11.4635558167,-11.596811215,22.7603857243\H,11.4686766696,-13.51948668
 02,21.8443190187\H,11.1469479034,-8.4230671951,23.2245076403\H,12.3248
 050808,-8.9183182744,24.4210151318\C,12.0423703446,-10.3433786233,22.8
 261488359\C,11.9433790151,-12.554190115,21.8760450045\H,12.9510282572,
 -14.2856863472,20.2214815118\C,13.1182275508,-10.0847377794,21.9796123
 401\C,13.0116242735,-12.2974476478,21.0338975325\H,13.5830293763,-9.11
 27919569,22.0105387071\C,13.4939476822,-13.36010145,20.0716312334\C,13
 .6094456771,-11.0296455302,21.0947583948\H,13.3457289046,-13.056394017
 5,19.0393645341\H,14.5506518835,-13.5667403117,20.1974912076\H,14.6850
 823998,-11.0538981685,19.2228273704\H,14.8823787767,-9.594795032,20.14
 58634946\C,14.797972413,-10.6734269416,20.2269998466\N,16.0228876329,-
 11.2327141964,20.7771025751\H,16.0631871044,-11.3772901881,21.75988113
 6\\Version=ES64L-G09RevD.01\State=1-A\HF=-554.6268349\RMSD=6.517e-09\R
 MSF=8.950e-07\Dipole=-0.3934935,-0.1971482,1.4988705\Quadrupole=1.7871
 33,3.9530922,-5.7402252,-1.0973141,6.4521724,2.6534819\PG=C01 [X(C11H1
 5N1O1)]\\@


 GARBAGE IN, GARBAGE OUT
 Job cpu time:       0 days  0 hours 25 minutes 44.7 seconds.
 File lengths (MBytes):  RWF=    134 Int=      0 D2E=      0 Chk=      6 Scr=      2
 Normal termination of Gaussian 09 at Wed Nov 29 20:33:36 2017.
