 Entering Gaussian System, Link 0=g09
 Initial command:
 /opt/software/Gaussian/g09/l1.exe "/mnt/ls15/scratch/users/songlin3/Gau-23112.inp" -scrdir="/mnt/ls15/scratch/users/songlin3/"
 Entering Link 1 = /opt/software/Gaussian/g09/l1.exe PID=     23113.
  
 Copyright (c) 1988,1990,1992,1993,1995,1998,2003,2009,2013,
            Gaussian, Inc.  All Rights Reserved.
  
 This is part of the Gaussian(R) 09 program.  It is based on
 the Gaussian(R) 03 system (copyright 2003, Gaussian, Inc.),
 the Gaussian(R) 98 system (copyright 1998, Gaussian, Inc.),
 the Gaussian(R) 94 system (copyright 1995, Gaussian, Inc.),
 the Gaussian 92(TM) system (copyright 1992, Gaussian, Inc.),
 the Gaussian 90(TM) system (copyright 1990, Gaussian, Inc.),
 the Gaussian 88(TM) system (copyright 1988, Gaussian, Inc.),
 the Gaussian 86(TM) system (copyright 1986, Carnegie Mellon
 University), and the Gaussian 82(TM) system (copyright 1983,
 Carnegie Mellon University). Gaussian is a federally registered
 trademark of Gaussian, Inc.
  
 This software contains proprietary and confidential information,
 including trade secrets, belonging to Gaussian, Inc.
  
 This software is provided under written license and may be
 used, copied, transmitted, or stored only in accord with that
 written license.
  
 The following legend is applicable only to US Government
 contracts under FAR:
  
                    RESTRICTED RIGHTS LEGEND
  
 Use, reproduction and disclosure by the US Government is
 subject to restrictions as set forth in subparagraphs (a)
 and (c) of the Commercial Computer Software - Restricted
 Rights clause in FAR 52.227-19.
  
 Gaussian, Inc.
 340 Quinnipiac St., Bldg. 40, Wallingford CT 06492
  
  
 ---------------------------------------------------------------
 Warning -- This program may not be used in any manner that
 competes with the business of Gaussian, Inc. or will provide
 assistance to any competitor of Gaussian, Inc.  The licensee
 of this program is prohibited from giving any competitor of
 Gaussian, Inc. access to this program.  By using this program,
 the user acknowledges that Gaussian, Inc. is engaged in the
 business of creating and licensing software in the field of
 computational chemistry and represents and warrants to the
 licensee that it is not a competitor of Gaussian, Inc. and that
 it will not use this program in any manner prohibited above.
 ---------------------------------------------------------------
  

 Cite this work as:
 Gaussian 09, Revision D.01,
 M. J. Frisch, G. W. Trucks, H. B. Schlegel, G. E. Scuseria, 
 M. A. Robb, J. R. Cheeseman, G. Scalmani, V. Barone, B. Mennucci, 
 G. A. Petersson, H. Nakatsuji, M. Caricato, X. Li, H. P. Hratchian, 
 A. F. Izmaylov, J. Bloino, G. Zheng, J. L. Sonnenberg, M. Hada, 
 M. Ehara, K. Toyota, R. Fukuda, J. Hasegawa, M. Ishida, T. Nakajima, 
 Y. Honda, O. Kitao, H. Nakai, T. Vreven, J. A. Montgomery, Jr., 
 J. E. Peralta, F. Ogliaro, M. Bearpark, J. J. Heyd, E. Brothers, 
 K. N. Kudin, V. N. Staroverov, T. Keith, R. Kobayashi, J. Normand, 
 K. Raghavachari, A. Rendell, J. C. Burant, S. S. Iyengar, J. Tomasi, 
 M. Cossi, N. Rega, J. M. Millam, M. Klene, J. E. Knox, J. B. Cross, 
 V. Bakken, C. Adamo, J. Jaramillo, R. Gomperts, R. E. Stratmann, 
 O. Yazyev, A. J. Austin, R. Cammi, C. Pomelli, J. W. Ochterski, 
 R. L. Martin, K. Morokuma, V. G. Zakrzewski, G. A. Voth, 
 P. Salvador, J. J. Dannenberg, S. Dapprich, A. D. Daniels, 
 O. Farkas, J. B. Foresman, J. V. Ortiz, J. Cioslowski, 
 and D. J. Fox, Gaussian, Inc., Wallingford CT, 2013.
 
 ******************************************
 Gaussian 09:  ES64L-G09RevD.01 24-Apr-2013
                29-Nov-2017 
 ******************************************
 %RWF=myrwf
 %NoSave
 %chk=esp.chk
 %NprocShared=4
 Will use up to    4 processors via shared memory.
 %Mem=16GB
 ----------------------------------------------------------------------
 #HF/6-31G* SCF=tight Test Pop=MK iop(6/33=2) iop(6/42=6) opt # iop(6/5
 0=1)
 ----------------------------------------------------------------------
 1/18=20,19=15,38=1/1,3;
 2/9=110,12=2,17=6,18=5,40=1/2;
 3/5=1,6=6,7=1,11=9,16=1,25=1,30=1,71=1/1,2,3;
 4//1;
 5/5=2,32=2,38=5/2;
 6/7=2,8=2,9=2,10=2,15=8,20=1,28=1,33=2,42=6,50=1/1,2;
 7//1,2,3,16;
 1/18=20,19=15/3(2);
 2/9=110/2;
 99//99;
 2/9=110/2;
 3/5=1,6=6,7=1,11=9,16=1,25=1,30=1,71=1/1,2,3;
 4/5=5,16=3,69=1/1;
 5/5=2,32=2,38=5/2;
 7//1,2,3,16;
 1/18=20,19=15/3(-5);
 2/9=110/2;
 6/7=2,8=2,9=2,10=2,15=8,19=2,20=1,28=1,33=2,42=6,50=1/1,2;
 99/9=1/99;
 ---------------------
 remark line goes here
 ---------------------
 Symbolic Z-matrix:
 Charge =  0 Multiplicity = 1
 H                    -4.81141   0.1489    1.02234 
 C                    -3.81897  -0.18601   1.28806 
 H                    -3.8651   -1.19977   1.6688 
 H                    -3.44132   0.45966   2.07507 
 C                    -2.91979  -0.05749   0.07636 
 O                    -3.11131   0.77755  -0.76631 
 H                     4.78801  -0.439     0.80175 
 H                     3.59576   1.62727   0.69736 
 C                     3.98505  -1.06273   0.42682 
 C                     2.71018   1.11788   0.35917 
 H                     4.33425  -1.54164  -0.48331 
 H                     3.80399  -1.84585   1.15709 
 H                     1.55182   2.91182   0.25539 
 C                     2.73468  -0.25296   0.17114 
 C                     1.55198   1.84591   0.11032 
 C                     1.56885  -0.88048  -0.26928 
 C                     0.40755   1.21204  -0.32639 
 H                     1.57704  -1.94768  -0.42244 
 C                     0.40865  -0.16937  -0.5187 
 H                    -0.48672   1.77536  -0.52462 
 H                    -1.27328  -0.37035  -1.83843 
 H                    -0.61097  -1.88967  -1.28649 
 C                    -0.84919  -0.87626  -0.98476 
 N                    -1.88944  -0.93549   0.02668 
 H                    -1.71945  -1.50421   0.82479 
 

 GradGradGradGradGradGradGradGradGradGradGradGradGradGradGradGradGradGrad
 Berny optimization.
 Initialization pass.
                           ----------------------------
                           !    Initial Parameters    !
                           ! (Angstroms and Degrees)  !
 --------------------------                            --------------------------
 ! Name  Definition              Value          Derivative Info.                !
 --------------------------------------------------------------------------------
 ! R1    R(1,2)                  1.0806         estimate D2E/DX2                !
 ! R2    R(2,3)                  1.0839         estimate D2E/DX2                !
 ! R3    R(2,4)                  1.0858         estimate D2E/DX2                !
 ! R4    R(2,5)                  1.5143         estimate D2E/DX2                !
 ! R5    R(5,6)                  1.2017         estimate D2E/DX2                !
 ! R6    R(5,24)                 1.3546         estimate D2E/DX2                !
 ! R7    R(7,9)                  1.0837         estimate D2E/DX2                !
 ! R8    R(8,10)                 1.0761         estimate D2E/DX2                !
 ! R9    R(9,11)                 1.0861         estimate D2E/DX2                !
 ! R10   R(9,12)                 1.086          estimate D2E/DX2                !
 ! R11   R(9,14)                 1.5115         estimate D2E/DX2                !
 ! R12   R(10,14)                1.3839         estimate D2E/DX2                !
 ! R13   R(10,15)                1.3905         estimate D2E/DX2                !
 ! R14   R(13,15)                1.0757         estimate D2E/DX2                !
 ! R15   R(14,16)                1.3953         estimate D2E/DX2                !
 ! R16   R(15,17)                1.3792         estimate D2E/DX2                !
 ! R17   R(16,18)                1.0782         estimate D2E/DX2                !
 ! R18   R(16,19)                1.3835         estimate D2E/DX2                !
 ! R19   R(17,19)                1.3947         estimate D2E/DX2                !
 ! R20   R(17,20)                1.0753         estimate D2E/DX2                !
 ! R21   R(19,23)                1.5163         estimate D2E/DX2                !
 ! R22   R(21,23)                1.0791         estimate D2E/DX2                !
 ! R23   R(22,23)                1.0839         estimate D2E/DX2                !
 ! R24   R(23,24)                1.4521         estimate D2E/DX2                !
 ! R25   R(24,25)                0.9946         estimate D2E/DX2                !
 ! A1    A(1,2,3)              109.7039         estimate D2E/DX2                !
 ! A2    A(1,2,4)              108.263          estimate D2E/DX2                !
 ! A3    A(1,2,5)              108.8            estimate D2E/DX2                !
 ! A4    A(3,2,4)              108.4442         estimate D2E/DX2                !
 ! A5    A(3,2,5)              112.6883         estimate D2E/DX2                !
 ! A6    A(4,2,5)              108.8439         estimate D2E/DX2                !
 ! A7    A(2,5,6)              121.6977         estimate D2E/DX2                !
 ! A8    A(2,5,24)             115.2119         estimate D2E/DX2                !
 ! A9    A(6,5,24)             123.0864         estimate D2E/DX2                !
 ! A10   A(7,9,11)             107.787          estimate D2E/DX2                !
 ! A11   A(7,9,12)             107.8145         estimate D2E/DX2                !
 ! A12   A(7,9,14)             111.292          estimate D2E/DX2                !
 ! A13   A(11,9,12)            107.4059         estimate D2E/DX2                !
 ! A14   A(11,9,14)            111.1288         estimate D2E/DX2                !
 ! A15   A(12,9,14)            111.2331         estimate D2E/DX2                !
 ! A16   A(8,10,14)            119.802          estimate D2E/DX2                !
 ! A17   A(8,10,15)            119.5951         estimate D2E/DX2                !
 ! A18   A(14,10,15)           120.6025         estimate D2E/DX2                !
 ! A19   A(9,14,10)            121.4911         estimate D2E/DX2                !
 ! A20   A(9,14,16)            120.2414         estimate D2E/DX2                !
 ! A21   A(10,14,16)           118.2671         estimate D2E/DX2                !
 ! A22   A(10,15,13)           119.6558         estimate D2E/DX2                !
 ! A23   A(10,15,17)           120.4779         estimate D2E/DX2                !
 ! A24   A(13,15,17)           119.8656         estimate D2E/DX2                !
 ! A25   A(14,16,18)           118.9239         estimate D2E/DX2                !
 ! A26   A(14,16,19)           121.7651         estimate D2E/DX2                !
 ! A27   A(18,16,19)           119.3104         estimate D2E/DX2                !
 ! A28   A(15,17,19)           119.8807         estimate D2E/DX2                !
 ! A29   A(15,17,20)           120.5085         estimate D2E/DX2                !
 ! A30   A(19,17,20)           119.6102         estimate D2E/DX2                !
 ! A31   A(16,19,17)           119.0063         estimate D2E/DX2                !
 ! A32   A(16,19,23)           120.7621         estimate D2E/DX2                !
 ! A33   A(17,19,23)           120.2302         estimate D2E/DX2                !
 ! A34   A(19,23,21)           110.524          estimate D2E/DX2                !
 ! A35   A(19,23,22)           109.8247         estimate D2E/DX2                !
 ! A36   A(19,23,24)           113.5279         estimate D2E/DX2                !
 ! A37   A(21,23,22)           107.727          estimate D2E/DX2                !
 ! A38   A(21,23,24)           106.7737         estimate D2E/DX2                !
 ! A39   A(22,23,24)           108.2526         estimate D2E/DX2                !
 ! A40   A(5,24,23)            122.9557         estimate D2E/DX2                !
 ! A41   A(5,24,25)            118.1108         estimate D2E/DX2                !
 ! A42   A(23,24,25)           117.3732         estimate D2E/DX2                !
 ! D1    D(1,2,5,6)             29.141          estimate D2E/DX2                !
 ! D2    D(1,2,5,24)          -151.566          estimate D2E/DX2                !
 ! D3    D(3,2,5,6)            151.0353         estimate D2E/DX2                !
 ! D4    D(3,2,5,24)           -29.6716         estimate D2E/DX2                !
 ! D5    D(4,2,5,6)            -88.6321         estimate D2E/DX2                !
 ! D6    D(4,2,5,24)            90.6609         estimate D2E/DX2                !
 ! D7    D(2,5,24,23)         -173.5966         estimate D2E/DX2                !
 ! D8    D(2,5,24,25)           -8.2303         estimate D2E/DX2                !
 ! D9    D(6,5,24,23)            5.6855         estimate D2E/DX2                !
 ! D10   D(6,5,24,25)          171.0517         estimate D2E/DX2                !
 ! D11   D(7,9,14,10)            2.5772         estimate D2E/DX2                !
 ! D12   D(7,9,14,16)         -177.6518         estimate D2E/DX2                !
 ! D13   D(11,9,14,10)        -117.5615         estimate D2E/DX2                !
 ! D14   D(11,9,14,16)          62.2095         estimate D2E/DX2                !
 ! D15   D(12,9,14,10)         122.8213         estimate D2E/DX2                !
 ! D16   D(12,9,14,16)         -57.4077         estimate D2E/DX2                !
 ! D17   D(8,10,14,9)           -0.1651         estimate D2E/DX2                !
 ! D18   D(8,10,14,16)        -179.9404         estimate D2E/DX2                !
 ! D19   D(15,10,14,9)         179.5962         estimate D2E/DX2                !
 ! D20   D(15,10,14,16)         -0.1791         estimate D2E/DX2                !
 ! D21   D(8,10,15,13)           0.1618         estimate D2E/DX2                !
 ! D22   D(8,10,15,17)         179.8602         estimate D2E/DX2                !
 ! D23   D(14,10,15,13)       -179.6            estimate D2E/DX2                !
 ! D24   D(14,10,15,17)          0.0984         estimate D2E/DX2                !
 ! D25   D(9,14,16,18)           0.0195         estimate D2E/DX2                !
 ! D26   D(9,14,16,19)        -179.7088         estimate D2E/DX2                !
 ! D27   D(10,14,16,18)        179.7978         estimate D2E/DX2                !
 ! D28   D(10,14,16,19)          0.0695         estimate D2E/DX2                !
 ! D29   D(10,15,17,19)          0.0966         estimate D2E/DX2                !
 ! D30   D(10,15,17,20)       -179.6331         estimate D2E/DX2                !
 ! D31   D(13,15,17,19)        179.7944         estimate D2E/DX2                !
 ! D32   D(13,15,17,20)          0.0647         estimate D2E/DX2                !
 ! D33   D(14,16,19,17)          0.1208         estimate D2E/DX2                !
 ! D34   D(14,16,19,23)       -179.4435         estimate D2E/DX2                !
 ! D35   D(18,16,19,17)       -179.6064         estimate D2E/DX2                !
 ! D36   D(18,16,19,23)          0.8293         estimate D2E/DX2                !
 ! D37   D(15,17,19,16)         -0.2033         estimate D2E/DX2                !
 ! D38   D(15,17,19,23)        179.3634         estimate D2E/DX2                !
 ! D39   D(20,17,19,16)        179.5289         estimate D2E/DX2                !
 ! D40   D(20,17,19,23)         -0.9044         estimate D2E/DX2                !
 ! D41   D(16,19,23,21)       -131.5563         estimate D2E/DX2                !
 ! D42   D(16,19,23,22)        -12.8342         estimate D2E/DX2                !
 ! D43   D(16,19,23,24)        108.5041         estimate D2E/DX2                !
 ! D44   D(17,19,23,21)         48.8847         estimate D2E/DX2                !
 ! D45   D(17,19,23,22)        167.6068         estimate D2E/DX2                !
 ! D46   D(17,19,23,24)        -71.0549         estimate D2E/DX2                !
 ! D47   D(19,23,24,5)          97.4971         estimate D2E/DX2                !
 ! D48   D(19,23,24,25)        -67.9701         estimate D2E/DX2                !
 ! D49   D(21,23,24,5)         -24.55           estimate D2E/DX2                !
 ! D50   D(21,23,24,25)        169.9828         estimate D2E/DX2                !
 ! D51   D(22,23,24,5)        -140.2888         estimate D2E/DX2                !
 ! D52   D(22,23,24,25)         54.244          estimate D2E/DX2                !
 --------------------------------------------------------------------------------
 Trust Radius=3.00D-01 FncErr=1.00D-07 GrdErr=1.00D-07
 Number of steps in this run=    129 maximum allowed number of steps=    150.
 GradGradGradGradGradGradGradGradGradGradGradGradGradGradGradGradGradGrad

                          Input orientation:                          
 ---------------------------------------------------------------------
 Center     Atomic      Atomic             Coordinates (Angstroms)
 Number     Number       Type             X           Y           Z
 ---------------------------------------------------------------------
      1          1           0       -4.811410    0.148895    1.022338
      2          6           0       -3.818967   -0.186006    1.288061
      3          1           0       -3.865098   -1.199769    1.668799
      4          1           0       -3.441322    0.459660    2.075067
      5          6           0       -2.919794   -0.057488    0.076357
      6          8           0       -3.111305    0.777550   -0.766309
      7          1           0        4.788013   -0.438999    0.801747
      8          1           0        3.595755    1.627265    0.697356
      9          6           0        3.985050   -1.062734    0.426816
     10          6           0        2.710180    1.117883    0.359168
     11          1           0        4.334253   -1.541638   -0.483309
     12          1           0        3.803986   -1.845850    1.157088
     13          1           0        1.551820    2.911821    0.255388
     14          6           0        2.734681   -0.252958    0.171143
     15          6           0        1.551977    1.845907    0.110319
     16          6           0        1.568849   -0.880477   -0.269279
     17          6           0        0.407545    1.212040   -0.326392
     18          1           0        1.577042   -1.947676   -0.422443
     19          6           0        0.408652   -0.169371   -0.518699
     20          1           0       -0.486720    1.775359   -0.524619
     21          1           0       -1.273279   -0.370347   -1.838432
     22          1           0       -0.610974   -1.889666   -1.286493
     23          6           0       -0.849185   -0.876262   -0.984760
     24          7           0       -1.889443   -0.935493    0.026684
     25          1           0       -1.719446   -1.504208    0.824793
 ---------------------------------------------------------------------
                    Distance matrix (angstroms):
                    1          2          3          4          5
     1  H    0.000000
     2  C    1.080607   0.000000
     3  H    1.769834   1.083884   0.000000
     4  H    1.755550   1.085762   1.760211   0.000000
     5  C    2.125014   1.514350   2.175839   2.129384   0.000000
     6  O    2.546531   2.376902   3.226104   2.878087   1.201687
     7  H    9.619938   8.624419   8.729655   8.375613   7.751260
     8  H    8.542342   7.656042   8.037422   7.265111   6.758433
     9  C    8.899461   7.900195   7.948970   7.757926   6.986431
    10  C    7.612690   6.722554   7.093724   6.420167   5.758306
    11  H    9.421679   8.452839   8.483973   8.426746   7.425438
    12  H    8.844332   7.802669   7.713243   7.658495   7.040983
    13  H    6.979446   6.285563   6.945927   5.852845   5.370678
    14  C    7.604572   6.648480   6.833484   6.501982   5.658647
    15  C    6.648633   5.861978   6.407004   5.542107   4.860124
    16  C    6.590568   5.651209   5.778051   5.691550   4.576537
    17  C    5.494255   4.735440   5.296517   4.598571   3.584005
    18  H    6.877159   5.928425   5.877886   6.100557   4.903381
    19  C    5.452076   4.597545   4.910377   4.684613   3.383070
    20  H    4.872515   4.270437   5.007585   4.149591   3.104891
    21  H    4.579518   4.036021   4.439159   4.550252   2.544663
    22  H    5.208656   4.452191   4.449610   4.983000   3.247289
    23  C    4.558357   3.802864   4.030107   4.226867   2.466532
    24  N    3.271867   2.424018   2.582556   2.924150   1.354616
    25  H    3.511697   2.521956   2.325694   2.895655   2.023361
                    6          7          8          9         10
     6  O    0.000000
     7  H    8.144815   0.000000
     8  H    6.917296   2.387849   0.000000
     9  C    7.427546   1.083683   2.731453   0.000000
    10  C    5.939041   2.633847   1.076143   2.526848   0.000000
    11  H    7.803528   1.753020   3.461401   1.086103   3.228069
    12  H    7.642181   1.753227   3.509593   1.085980   3.258343
    13  H    5.229122   4.690357   2.454198   4.663377   2.137939
    14  C    6.009685   2.156025   2.133914   1.511466   1.383893
    15  C    4.863750   4.021293   2.137626   3.805287   1.390460
    16  C    4.989983   3.421259   3.366230   2.521070   2.385587
    17  C    3.572760   4.815301   3.374189   4.305864   2.404368
    18  H    5.433755   3.753010   4.255509   2.702381   3.360442
    19  C    3.653501   4.582039   3.855427   3.805617   2.779335
    20  H    2.818241   5.872430   4.264007   5.381146   3.381349
    21  H    2.417738   6.611696   5.841932   5.767215   4.786671
    22  H    3.692734   5.967767   5.831040   4.974202   4.773219
    23  C    2.810694   5.929655   5.371653   5.039558   4.295560
    24  N    2.248622   6.740597   6.091381   5.889479   5.048112
    25  H    3.110514   6.594105   6.170391   5.735378   5.168535
                   11         12         13         14         15
    11  H    0.000000
    12  H    1.750609   0.000000
    13  H    5.302915   5.340482   0.000000
    14  C    2.155837   2.157036   3.379657   0.000000
    15  C    4.423677   4.449308   1.075741   2.409922   0.000000
    16  C    2.851386   2.821756   3.828458   1.395319   2.752735
    17  C    4.798583   4.804916   2.130044   2.794516   1.379213
    18  H    2.787613   2.732136   4.906608   2.136479   3.830892
    19  C    4.158691   4.140910   3.376357   2.427608   2.400875
    20  H    5.852004   5.861011   2.460813   3.869829   2.136448
    21  H    5.886654   6.076913   4.810186   4.485077   4.085521
    22  H    5.022101   5.046274   5.487199   3.999615   4.536953
    23  C    5.249972   5.213407   4.653210   3.816899   3.791435
    24  N    6.273906   5.875517   5.166858   4.676456   4.425670
    25  H    6.193529   5.543955   5.525099   4.672487   4.736660
                   16         17         18         19         20
    16  C    0.000000
    17  C    2.393850   0.000000
    18  H    1.078165   3.370572   0.000000
    19  C    1.383452   1.394733   2.129969   0.000000
    20  H    3.368090   1.075329   4.257998   2.140958   0.000000
    21  H    3.286360   2.759598   3.552087   2.147319   2.636064
    22  H    2.608604   3.402904   2.353160   2.142092   3.745437
    23  C    2.521670   2.524643   2.711219   1.516266   2.715549
    24  N    3.471369   3.164287   3.639059   2.483068   3.101658
    25  H    3.521210   3.636938   3.552337   2.848782   3.754475
                   21         22         23         24         25
    21  H    0.000000
    22  H    1.746887   0.000000
    23  C    1.079149   1.083870   0.000000
    24  N    2.043944   2.066244   1.452124   0.000000
    25  H    2.928732   2.415537   2.103842   0.994643   0.000000
 Stoichiometry    C10H13NO
 Framework group  C1[X(C10H13NO)]
 Deg. of freedom    69
 Full point group                 C1      NOp   1
 Largest Abelian subgroup         C1      NOp   1
 Largest concise Abelian subgroup C1      NOp   1
                         Standard orientation:                         
 ---------------------------------------------------------------------
 Center     Atomic      Atomic             Coordinates (Angstroms)
 Number     Number       Type             X           Y           Z
 ---------------------------------------------------------------------
      1          1           0       -4.811410    0.148895    1.022338
      2          6           0       -3.818967   -0.186006    1.288061
      3          1           0       -3.865098   -1.199769    1.668799
      4          1           0       -3.441322    0.459660    2.075067
      5          6           0       -2.919794   -0.057488    0.076357
      6          8           0       -3.111305    0.777550   -0.766309
      7          1           0        4.788013   -0.438999    0.801747
      8          1           0        3.595755    1.627265    0.697356
      9          6           0        3.985050   -1.062734    0.426816
     10          6           0        2.710180    1.117883    0.359168
     11          1           0        4.334253   -1.541638   -0.483309
     12          1           0        3.803986   -1.845850    1.157088
     13          1           0        1.551820    2.911821    0.255388
     14          6           0        2.734681   -0.252958    0.171143
     15          6           0        1.551977    1.845907    0.110319
     16          6           0        1.568849   -0.880477   -0.269279
     17          6           0        0.407545    1.212040   -0.326392
     18          1           0        1.577042   -1.947676   -0.422443
     19          6           0        0.408652   -0.169371   -0.518699
     20          1           0       -0.486720    1.775359   -0.524619
     21          1           0       -1.273279   -0.370347   -1.838432
     22          1           0       -0.610974   -1.889666   -1.286493
     23          6           0       -0.849185   -0.876262   -0.984760
     24          7           0       -1.889443   -0.935493    0.026684
     25          1           0       -1.719446   -1.504208    0.824793
 ---------------------------------------------------------------------
 Rotational constants (GHZ):      2.2108381      0.4514389      0.4167225
 Standard basis: 6-31G(d) (6D, 7F)
 There are   206 symmetry adapted cartesian basis functions of A   symmetry.
 There are   206 symmetry adapted basis functions of A   symmetry.
   206 basis functions,   388 primitive gaussians,   206 cartesian basis functions
    44 alpha electrons       44 beta electrons
       nuclear repulsion energy       662.6614371586 Hartrees.
 NAtoms=   25 NActive=   25 NUniq=   25 SFac= 1.00D+00 NAtFMM=   60 NAOKFM=F Big=F
 Integral buffers will be    131072 words long.
 Raffenetti 1 integral format.
 Two-electron integral symmetry is turned on.
 One-electron integrals computed using PRISM.
 NBasis=   206 RedAO= T EigKep=  3.96D-04  NBF=   206
 NBsUse=   206 1.00D-06 EigRej= -1.00D+00 NBFU=   206
 ExpMin= 1.61D-01 ExpMax= 5.48D+03 ExpMxC= 8.25D+02 IAcc=1 IRadAn=         1 AccDes= 0.00D+00
 Harris functional with IExCor=  205 and IRadAn=       1 diagonalized for initial guess.
 HarFok:  IExCor=  205 AccDes= 0.00D+00 IRadAn=         1 IDoV= 1 UseB2=F ITyADJ=14
 ICtDFT=  3500011 ScaDFX=  1.000000  1.000000  1.000000  1.000000
 FoFCou: FMM=F IPFlag=           0 FMFlag=      100000 FMFlg1=           0
         NFxFlg=           0 DoJE=T BraDBF=F KetDBF=T FulRan=T
         wScrn=  0.000000 ICntrl=     500 IOpCl=  0 I1Cent=   200000004 NGrid=           0
         NMat0=    1 NMatS0=      1 NMatT0=    0 NMatD0=    1 NMtDS0=    0 NMtDT0=    0
 Petite list used in FoFCou.
 Keep R1 ints in memory in canonical form, NReq=231886609.
 Requested convergence on RMS density matrix=1.00D-08 within 128 cycles.
 Requested convergence on MAX density matrix=1.00D-06.
 Requested convergence on             energy=1.00D-06.
 No special actions if energy rises.
 SCF Done:  E(RHF) =  -515.591749510     A.U. after   15 cycles
            NFock= 15  Conv=0.39D-08     -V/T= 2.0011

 **********************************************************************

            Population analysis using the SCF density.

 **********************************************************************

 Orbital symmetries:
 BldTbl:  Degeneracy threshold= 1.00D-02
       Occupied  (A) (A) (A) (A) (A) (A) (A) (A) (A) (A) (A) (A)
                 (A) (A) (A) (A) (A) (A) (A) (A) (A) (A) (A) (A)
                 (A) (A) (A) (A) (A) (A) (A) (A) (A) (A) (A) (A)
                 (A) (A) (A) (A) (A) (A) (A) (A)
       Virtual   (A) (A) (A) (A) (A) (A) (A) (A) (A) (A) (A) (A)
                 (A) (A) (A) (A) (A) (A) (A) (A) (A) (A) (A) (A)
                 (A) (A) (A) (A) (A) (A) (A) (A) (A) (A) (A) (A)
                 (A) (A) (A) (A) (A) (A) (A) (A) (A) (A) (A) (A)
                 (A) (A) (A) (A) (A) (A) (A) (A) (A) (A) (A) (A)
                 (A) (A) (A) (A) (A) (A) (A) (A) (A) (A) (A) (A)
                 (A) (A) (A) (A) (A) (A) (A) (A) (A) (A) (A) (A)
                 (A) (A) (A) (A) (A) (A) (A) (A) (A) (A) (A) (A)
                 (A) (A) (A) (A) (A) (A) (A) (A) (A) (A) (A) (A)
                 (A) (A) (A) (A) (A) (A) (A) (A) (A) (A) (A) (A)
                 (A) (A) (A) (A) (A) (A) (A) (A) (A) (A) (A) (A)
                 (A) (A) (A) (A) (A) (A) (A) (A) (A) (A) (A) (A)
                 (A) (A) (A) (A) (A) (A) (A) (A) (A) (A) (A) (A)
                 (A) (A) (A) (A) (A) (A)
 The electronic state is 1-A.
 Alpha  occ. eigenvalues --  -20.51809 -15.58293 -11.34564 -11.26365 -11.23827
 Alpha  occ. eigenvalues --  -11.23494 -11.23085 -11.22780 -11.22560 -11.22401
 Alpha  occ. eigenvalues --  -11.22280 -11.22065  -1.38644  -1.23387  -1.15480
 Alpha  occ. eigenvalues --   -1.05543  -1.03093  -1.00200  -0.93627  -0.92277
 Alpha  occ. eigenvalues --   -0.81878  -0.79108  -0.78416  -0.69310  -0.68361
 Alpha  occ. eigenvalues --   -0.65253  -0.64419  -0.62840  -0.60992  -0.58154
 Alpha  occ. eigenvalues --   -0.57889  -0.57481  -0.56357  -0.55860  -0.55198
 Alpha  occ. eigenvalues --   -0.53182  -0.51535  -0.48801  -0.48129  -0.47904
 Alpha  occ. eigenvalues --   -0.41641  -0.38753  -0.32925  -0.31840
 Alpha virt. eigenvalues --    0.14472   0.14561   0.20760   0.22263   0.24380
 Alpha virt. eigenvalues --    0.26709   0.26916   0.28916   0.30495   0.30595
 Alpha virt. eigenvalues --    0.30725   0.32480   0.33314   0.34162   0.34891
 Alpha virt. eigenvalues --    0.35586   0.37912   0.40571   0.41598   0.43281
 Alpha virt. eigenvalues --    0.44860   0.48584   0.50703   0.51934   0.54012
 Alpha virt. eigenvalues --    0.57924   0.59786   0.62084   0.71568   0.73069
 Alpha virt. eigenvalues --    0.73669   0.74839   0.75708   0.76579   0.78414
 Alpha virt. eigenvalues --    0.79253   0.79892   0.81645   0.82127   0.83232
 Alpha virt. eigenvalues --    0.84410   0.85954   0.86437   0.87354   0.89580
 Alpha virt. eigenvalues --    0.92502   0.93207   0.94069   0.97181   0.98290
 Alpha virt. eigenvalues --    1.00160   1.00996   1.01888   1.03847   1.07679
 Alpha virt. eigenvalues --    1.09625   1.11358   1.11782   1.12834   1.14007
 Alpha virt. eigenvalues --    1.15727   1.15863   1.17174   1.18073   1.18584
 Alpha virt. eigenvalues --    1.19539   1.20612   1.21294   1.22588   1.23262
 Alpha virt. eigenvalues --    1.24726   1.25540   1.29135   1.33372   1.34908
 Alpha virt. eigenvalues --    1.39186   1.41209   1.43788   1.44294   1.45254
 Alpha virt. eigenvalues --    1.50493   1.51700   1.55279   1.59416   1.61502
 Alpha virt. eigenvalues --    1.63448   1.65648   1.68743   1.70612   1.73038
 Alpha virt. eigenvalues --    1.75106   1.77614   1.78674   1.79672   1.82829
 Alpha virt. eigenvalues --    1.88107   1.94977   2.02454   2.05058   2.09602
 Alpha virt. eigenvalues --    2.12099   2.12988   2.14292   2.14559   2.19140
 Alpha virt. eigenvalues --    2.19496   2.20198   2.21064   2.21793   2.25927
 Alpha virt. eigenvalues --    2.27421   2.30724   2.32446   2.38755   2.40648
 Alpha virt. eigenvalues --    2.42614   2.42712   2.46300   2.48950   2.52371
 Alpha virt. eigenvalues --    2.53587   2.55863   2.56809   2.60812   2.63852
 Alpha virt. eigenvalues --    2.65324   2.67190   2.68565   2.69734   2.72198
 Alpha virt. eigenvalues --    2.74418   2.76485   2.78535   2.82448   2.92797
 Alpha virt. eigenvalues --    2.95677   2.97365   3.01507   3.06042   3.07400
 Alpha virt. eigenvalues --    3.14187   3.16891   3.19096   3.19740   3.26238
 Alpha virt. eigenvalues --    3.30076   3.38720   3.47830   3.55095   3.83148
 Alpha virt. eigenvalues --    4.39918   4.48868   4.53959   4.55567   4.58740
 Alpha virt. eigenvalues --    4.64183   4.67198   4.76111   4.80946   4.87223
 Alpha virt. eigenvalues --    4.93720   5.17171
          Condensed to atoms (all electrons):
               1          2          3          4          5          6
     1  H    0.466543   0.383982  -0.021637  -0.018064  -0.030768   0.002942
     2  C    0.383982   5.261322   0.374733   0.376834   0.372228  -0.071708
     3  H   -0.021637   0.374733   0.527566  -0.024244  -0.037436   0.002374
     4  H   -0.018064   0.376834  -0.024244   0.492272  -0.027094   0.000068
     5  C   -0.030768   0.372228  -0.037436  -0.027094   4.137059   0.599828
     6  O    0.002942  -0.071708   0.002374   0.000068   0.599828   8.167656
     7  H    0.000000   0.000000   0.000000   0.000000   0.000000   0.000000
     8  H    0.000000   0.000000   0.000000   0.000000   0.000000   0.000000
     9  C    0.000000   0.000000   0.000000   0.000000   0.000000   0.000000
    10  C    0.000000   0.000000   0.000000   0.000000   0.000000   0.000000
    11  H    0.000000   0.000000   0.000000   0.000000   0.000000   0.000000
    12  H    0.000000   0.000000   0.000000   0.000000   0.000000   0.000000
    13  H    0.000000   0.000000   0.000000   0.000000   0.000000  -0.000002
    14  C    0.000000   0.000000   0.000000   0.000000  -0.000002   0.000000
    15  C    0.000000   0.000001   0.000000  -0.000001   0.000056   0.000063
    16  C    0.000000  -0.000008   0.000001   0.000001  -0.000092  -0.000031
    17  C    0.000001  -0.000031  -0.000004   0.000035   0.001943  -0.001294
    18  H    0.000000   0.000000   0.000000   0.000000  -0.000001   0.000000
    19  C   -0.000002  -0.000418   0.000008   0.000082  -0.001617  -0.002155
    20  H   -0.000002   0.000153  -0.000002  -0.000034   0.001298   0.006645
    21  H    0.000003   0.000399  -0.000029  -0.000009  -0.001083   0.007504
    22  H    0.000004  -0.000017  -0.000023  -0.000003   0.002132   0.000389
    23  C   -0.000105   0.004525   0.000002  -0.000197  -0.021978   0.003926
    24  N    0.003746  -0.117739   0.005711   0.000445   0.273485  -0.103572
    25  H    0.000056  -0.000163   0.000501   0.000038  -0.018440   0.002422
               7          8          9         10         11         12
     1  H    0.000000   0.000000   0.000000   0.000000   0.000000   0.000000
     2  C    0.000000   0.000000   0.000000   0.000000   0.000000   0.000000
     3  H    0.000000   0.000000   0.000000   0.000000   0.000000   0.000000
     4  H    0.000000   0.000000   0.000000   0.000000   0.000000   0.000000
     5  C    0.000000   0.000000   0.000000   0.000000   0.000000   0.000000
     6  O    0.000000   0.000000   0.000000   0.000000   0.000000   0.000000
     7  H    0.515800   0.002640   0.398865  -0.001923  -0.025199  -0.025444
     8  H    0.002640   0.482608  -0.003156   0.381395   0.000053   0.000039
     9  C    0.398865  -0.003156   5.095159  -0.041031   0.389806   0.390749
    10  C   -0.001923   0.381395  -0.041031   4.918381   0.000136   0.000648
    11  H   -0.025199   0.000053   0.389806   0.000136   0.527146  -0.030776
    12  H   -0.025444   0.000039   0.390749   0.000648  -0.030776   0.531157
    13  H   -0.000006  -0.001584  -0.000120  -0.030125   0.000002   0.000002
    14  C   -0.043122  -0.031743   0.326725   0.591801  -0.037146  -0.038359
    15  C    0.000233  -0.031450   0.003688   0.533577  -0.000088  -0.000090
    16  C    0.003283   0.003207  -0.053465  -0.041363  -0.003394  -0.003348
    17  C   -0.000013   0.002540   0.000222  -0.045292   0.000016   0.000020
    18  H   -0.000023  -0.000131  -0.001721   0.002954   0.000904   0.001061
    19  C   -0.000001   0.000213   0.001916  -0.035777  -0.000057  -0.000019
    20  H    0.000000  -0.000105   0.000006   0.002299   0.000000   0.000000
    21  H    0.000000   0.000000   0.000002  -0.000002   0.000000   0.000000
    22  H    0.000000   0.000000  -0.000009  -0.000022  -0.000001   0.000000
    23  C    0.000001   0.000007  -0.000114   0.000357   0.000004  -0.000004
    24  N    0.000000   0.000000   0.000001  -0.000002   0.000000   0.000000
    25  H    0.000000   0.000000   0.000000  -0.000007   0.000000   0.000000
              13         14         15         16         17         18
     1  H    0.000000   0.000000   0.000000   0.000000   0.000001   0.000000
     2  C    0.000000   0.000000   0.000001  -0.000008  -0.000031   0.000000
     3  H    0.000000   0.000000   0.000000   0.000001  -0.000004   0.000000
     4  H    0.000000   0.000000  -0.000001   0.000001   0.000035   0.000000
     5  C    0.000000  -0.000002   0.000056  -0.000092   0.001943  -0.000001
     6  O   -0.000002   0.000000   0.000063  -0.000031  -0.001294   0.000000
     7  H   -0.000006  -0.043122   0.000233   0.003283  -0.000013  -0.000023
     8  H   -0.001584  -0.031743  -0.031450   0.003207   0.002540  -0.000131
     9  C   -0.000120   0.326725   0.003688  -0.053465   0.000222  -0.001721
    10  C   -0.030125   0.591801   0.533577  -0.041363  -0.045292   0.002954
    11  H    0.000002  -0.037146  -0.000088  -0.003394   0.000016   0.000904
    12  H    0.000002  -0.038359  -0.000090  -0.003348   0.000020   0.001061
    13  H    0.473911   0.002104   0.381274   0.000442  -0.028988   0.000014
    14  C    0.002104   4.772758  -0.040205   0.551049  -0.034654  -0.034470
    15  C    0.381274  -0.040205   4.897212  -0.042518   0.550362   0.000090
    16  C    0.000442   0.551049  -0.042518   4.966889  -0.044892   0.379629
    17  C   -0.028988  -0.034654   0.550362  -0.044892   4.953421   0.003171
    18  H    0.000014  -0.034470   0.000090   0.379629   0.003171   0.492929
    19  C    0.002207  -0.037266  -0.038450   0.575704   0.547544  -0.033239
    20  H   -0.001459   0.000258  -0.026711   0.002493   0.374054  -0.000122
    21  H   -0.000001  -0.000037   0.000049   0.001550  -0.002830   0.000036
    22  H    0.000002   0.000251  -0.000028  -0.000871   0.003391   0.003061
    23  C   -0.000124   0.002464   0.002233  -0.036243  -0.044291  -0.003180
    24  N    0.000005   0.000000   0.000005  -0.001450   0.000190   0.000125
    25  H    0.000000   0.000003  -0.000011   0.000989   0.000342   0.000054
              19         20         21         22         23         24
     1  H   -0.000002  -0.000002   0.000003   0.000004  -0.000105   0.003746
     2  C   -0.000418   0.000153   0.000399  -0.000017   0.004525  -0.117739
     3  H    0.000008  -0.000002  -0.000029  -0.000023   0.000002   0.005711
     4  H    0.000082  -0.000034  -0.000009  -0.000003  -0.000197   0.000445
     5  C   -0.001617   0.001298  -0.001083   0.002132  -0.021978   0.273485
     6  O   -0.002155   0.006645   0.007504   0.000389   0.003926  -0.103572
     7  H   -0.000001   0.000000   0.000000   0.000000   0.000001   0.000000
     8  H    0.000213  -0.000105   0.000000   0.000000   0.000007   0.000000
     9  C    0.001916   0.000006   0.000002  -0.000009  -0.000114   0.000001
    10  C   -0.035777   0.002299  -0.000002  -0.000022   0.000357  -0.000002
    11  H   -0.000057   0.000000   0.000000  -0.000001   0.000004   0.000000
    12  H   -0.000019   0.000000   0.000000   0.000000  -0.000004   0.000000
    13  H    0.002207  -0.001459  -0.000001   0.000002  -0.000124   0.000005
    14  C   -0.037266   0.000258  -0.000037   0.000251   0.002464   0.000000
    15  C   -0.038450  -0.026711   0.000049  -0.000028   0.002233   0.000005
    16  C    0.575704   0.002493   0.001550  -0.000871  -0.036243  -0.001450
    17  C    0.547544   0.374054  -0.002830   0.003391  -0.044291   0.000190
    18  H   -0.033239  -0.000122   0.000036   0.003061  -0.003180   0.000125
    19  C    4.859580  -0.028577  -0.038882  -0.060679   0.330381  -0.074696
    20  H   -0.028577   0.435593   0.000629  -0.000057  -0.000301  -0.002244
    21  H   -0.038882   0.000629   0.447694  -0.021576   0.409261  -0.040457
    22  H   -0.060679  -0.000057  -0.021576   0.516208   0.418863  -0.043422
    23  C    0.330381  -0.000301   0.409261   0.418863   4.928509   0.190221
    24  N   -0.074696  -0.002244  -0.040457  -0.043422   0.190221   7.369783
    25  H    0.001491  -0.000035   0.003133  -0.001822  -0.022887   0.321869
              25
     1  H    0.000056
     2  C   -0.000163
     3  H    0.000501
     4  H    0.000038
     5  C   -0.018440
     6  O    0.002422
     7  H    0.000000
     8  H    0.000000
     9  C    0.000000
    10  C   -0.000007
    11  H    0.000000
    12  H    0.000000
    13  H    0.000000
    14  C    0.000003
    15  C   -0.000011
    16  C    0.000989
    17  C    0.000342
    18  H    0.000054
    19  C    0.001491
    20  H   -0.000035
    21  H    0.003133
    22  H   -0.001822
    23  C   -0.022887
    24  N    0.321869
    25  H    0.332796
 Mulliken charges:
               1
     1  H    0.213300
     2  C   -0.584094
     3  H    0.172479
     4  H    0.199870
     5  C    0.750484
     6  O   -0.615054
     7  H    0.174909
     8  H    0.195466
     9  C   -0.507523
    10  C   -0.236003
    11  H    0.178593
    12  H    0.174363
    13  H    0.202445
    14  C    0.049589
    15  C   -0.189293
    16  C   -0.257561
    17  C   -0.234963
    18  H    0.188859
    19  C    0.032706
    20  H    0.236221
    21  H    0.234645
    22  H    0.184228
    23  C   -0.161332
    24  N   -0.782004
    25  H    0.379670
 Sum of Mulliken charges =   0.00000
 Mulliken charges with hydrogens summed into heavy atoms:
               1
     2  C    0.001555
     5  C    0.750484
     6  O   -0.615054
     9  C    0.020342
    10  C   -0.040536
    14  C    0.049589
    15  C    0.013152
    16  C   -0.068703
    17  C    0.001258
    19  C    0.032706
    23  C    0.257541
    24  N   -0.402334
 DipInt: DoE/N= T F RetVal/Mat= T F Init=T NMatP=  1 IDeriv=0 Min/MaxMlt=  0  4
 Entering OneElI...
 OneElI was handed  2147372196 working-precision words.
 Multipole integrals L=0 to 4 MinM= 0 MaxM= 0.
 Requested accuracy = 0.1000D-12
 PrtBox:  NBox=     1 Levels=  1 BoxLen=   35.86 SMaxX=       18.14
          Shift=            9.092247            3.680574            3.474133
 Box      1 Number                   0 centers from      1 to     74:
 ShPair: Thresh= 1.00D-13 NBox=     1 BxSize= 3.59D+01 RnKept= 1.82D+01
         NSMCal=                 2775 NSMKep=                2422
 PrsmSu:  NPrtUS=   1 ThrOK=F IAlg=1 NPAlg=1 LenDen=           0.
 Prism:   IPart=     0 DynPar=F LinDyn=F Incr=          24.
 PRISM was handed  2147162636 working-precision words and  2422 shell-pairs
 IPart=  0 NShTot=        2422 NBatch=          47 AvBLen=        51.5
 PrSmSu:  NxtVal=             25.
 Electronic moments (au):
        -88.00000000          0.58881119         -1.00375307          0.99785084
      -2160.48259021       -394.04610699       -205.73904047          4.30767789
         -5.09370223          1.23727773        174.01524479       -299.94700564
        -82.16518893       -658.76355126        593.92751909      -1445.15810522
        489.63289116         73.14334293          9.74798628       -125.86454503
     -96469.44456544      -4569.07938149      -1618.30234623       6561.75496675
       2178.01960160       -847.52574746       -125.51893176        859.25379416
        -21.38489730      -7893.44756301      -6432.89667050       -773.53761914
       1451.51042510       -537.33872982         23.94765440
 Electronic spatial extent (au):  <R**2>=           2760.2677
 DipInt: DoE/N= F T RetVal/Mat= T F Init=T NMatP=  1 IDeriv=0 Min/MaxMlt=  0  4
 Nuclear    moments (au):
         88.00000000          0.00000000          0.00000000          0.00000000
       2106.87407562        343.64212899        151.36627259          0.00000000
         -0.00007001         -0.00000719       -162.56795587        301.45993108
         81.46288265        663.66943692       -618.81012619       1493.27863715
       -505.78554641        -80.92586317         -3.61396745        125.45141210
      88963.16460903       3259.84637224        897.50614968      -6410.17744599
      -2343.68227950        873.92832761        125.18682918       -858.87095606
         17.86511271       6362.46733665       4992.65064496        419.83145054
      -1389.89275520        528.37042509        -24.01436009
 Total      moments (au):
          0.00000000          0.58881119         -1.00375307          0.99785084
        -53.60851459        -50.40397800        -54.37276788          4.30767789
         -5.09377224          1.23727054         11.44728892          1.51292544
         -0.70230628          4.90588566        -24.88260711         48.12053193
        -16.15265526         -7.78252024          6.13401884         -0.41313294
      -7506.27995641      -1309.23300925       -720.79619655        151.57752076
       -165.66267790         26.40258015         -0.33210258          0.38283810
         -3.51978458      -1530.98022635      -1440.24602554       -353.70616860
         61.61766990         -8.96830473         -0.06670569
 Traceless Quadrup. (au):
         -0.81342777          2.39110882         -1.57768106          4.30767789
         -5.09377224          1.23727054
 Charge=              0.0000 electrons
 Dipole moment (field-independent basis, Debye):
    X=              1.4966    Y=             -2.5513    Z=              2.5363  Tot=              3.8964
 Quadrupole moment (field-independent basis, Debye-Ang):
   XX=            -72.1053   YY=            -67.7951   ZZ=            -73.1332
   XY=              5.7940   XZ=             -6.8513   YZ=              1.6642
 Traceless Quadrupole moment (field-independent basis, Debye-Ang):
   XX=             -1.0941   YY=              3.2161   ZZ=             -2.1220
   XY=              5.7940   XZ=             -6.8513   YZ=              1.6642
 Octapole moment (field-independent basis, Debye-Ang**2):
  XXX=              8.1477  YYY=              1.0768  ZZZ=             -0.4999  XYY=              3.4918
  XXY=            -17.7105  XXZ=             34.2503  XZZ=            -11.4968  YZZ=             -5.5393
  YYZ=              4.3660  XYZ=             -0.2941
 Hexadecapole moment (field-independent basis, Debye-Ang**3):
 XXXX=          -2827.2248 YYYY=           -493.1199 ZZZZ=           -271.4864 XXXY=             57.0914
 XXXZ=            -62.3965 YYYX=              9.9445 YYYZ=             -0.1251 ZZZX=              0.1442
 ZZZY=             -1.3257 XXYY=           -576.6405 XXZZ=           -542.4657 YYZZ=           -133.2227
 XXYZ=             23.2082 YYXZ=             -3.3779 ZZXY=             -0.0251
 N-N= 6.626614371586D+02 E-N=-2.529676892730D+03  KE= 5.150104827067D+02
 Entering OneElI...
 OneElI was handed  2147392686 working-precision words.
 Calculate electrostatic properties
    NBasis =   206  MinDer = 0  MaxDer = 0
    NGrid  =    25  NMatD  =   1
 Requested accuracy = 0.1000D-12
 PrtBox:  NBox=     1 Levels=  1 BoxLen=   29.89 SMaxX=       18.14
          Shift=            9.092247            3.680574            3.474133
 Box      1 Number                   0 centers from      1 to     74:
 ShPair: Thresh= 1.00D-13 NBox=     1 BxSize= 2.99D+01 RnKept= 1.68D+01
         NSMCal=                 2775 NSMKep=                2209
 PrsmSu:  NPrtUS=   4 ThrOK=T IAlg=1 NPAlg=1 LenDen=           0.
 Prism:   IPart=     0 DynPar=F LinDyn=F Incr=         138.
 PRISM was handed   536747838 working-precision words and  2209 shell-pairs
 PRISM was handed   536747838 working-precision words and  2209 shell-pairs
 PRISM was handed   536747838 working-precision words and  2209 shell-pairs
 PRISM was handed   536747838 working-precision words and  2209 shell-pairs
 IPart=  3 NShTot=       13450 NBatch=         538 AvBLen=        25.0
 IPart=  1 NShTot=       13900 NBatch=         556 AvBLen=        25.0
 IPart=  0 NShTot=       14150 NBatch=         566 AvBLen=        25.0
 IPart=  2 NShTot=       13725 NBatch=         549 AvBLen=        25.0
 PrSmSu:  NxtVal=            553.
 --------------------------------------------------------
       Center         ----      EFG at Nuclei      ----
                      3XX-RR        3YY-RR        3ZZ-RR
 --------------------------------------------------------
     1   Atom       -0.246696      0.118306      0.128390
     2   Atom        0.006857      0.010834     -0.017691
     3   Atom        0.154643     -0.256018      0.101375
     4   Atom        0.097605     -0.005241     -0.092365
     5   Atom       -0.037634     -0.099403      0.137037
     6   Atom        0.851177     -0.626383     -0.224794
     7   Atom       -0.103416     -0.004121      0.107537
     8   Atom       -0.172066      0.044666      0.127400
     9   Atom       -0.031224      0.011342      0.019882
    10   Atom        0.099447      0.161045     -0.260493
    11   Atom        0.105535      0.067913     -0.173448
    12   Atom        0.138583     -0.086088     -0.052495
    13   Atom        0.155426     -0.319428      0.164002
    14   Atom        0.104373      0.194677     -0.299050
    15   Atom        0.168047      0.132506     -0.300552
    16   Atom        0.156197      0.082885     -0.239082
    17   Atom        0.121921      0.150392     -0.272312
    18   Atom        0.150093     -0.314781      0.164688
    19   Atom        0.115205      0.188801     -0.304006
    20   Atom       -0.171085      0.016451      0.154634
    21   Atom        0.083053      0.061708     -0.144761
    22   Atom        0.127163     -0.249798      0.122635
    23   Atom       -0.080448      0.135103     -0.054655
    24   Atom       -0.093130      0.264690     -0.171559
    25   Atom        0.182535      0.021189     -0.203724
 --------------------------------------------------------
                        XY            XZ            YZ
 --------------------------------------------------------
     1   Atom        0.135455     -0.104292      0.036558
     2   Atom       -0.020442      0.047596      0.003100
     3   Atom       -0.013606      0.013375      0.155481
     4   Atom       -0.100394     -0.114752     -0.202655
     5   Atom       -0.242829     -0.248240     -0.326046
     6   Atom       -0.558006     -0.976494      0.401707
     7   Atom       -0.198584     -0.123734     -0.095272
     8   Atom       -0.185243     -0.131428     -0.074467
     9   Atom        0.030401     -0.012282      0.009498
    10   Atom       -0.053327      0.114264      0.049546
    11   Atom        0.069110      0.123666     -0.174510
    12   Atom       -0.055922      0.052776      0.230378
    13   Atom        0.000560     -0.005899     -0.067334
    14   Atom        0.018477      0.141030      0.083940
    15   Atom       -0.014889      0.156031      0.062832
    16   Atom       -0.019124      0.126930      0.048686
    17   Atom        0.000131      0.137342      0.067396
    18   Atom        0.003457     -0.007384     -0.070061
    19   Atom       -0.060322      0.118625      0.053633
    20   Atom        0.208213     -0.077391      0.042839
    21   Atom        0.077796     -0.136658      0.174825
    22   Atom        0.094667      0.035243     -0.119809
    23   Atom       -0.055127      0.216714     -0.044021
    24   Atom        0.547069      0.389282      0.502780
    25   Atom        0.093760     -0.063426      0.312772
 --------------------------------------------------------


 ---------------------------------------------------------------------------------
              Nuclear Quadrupole Coupling Constant in Principal Axis System
 ---------------------------------------------------------------------------------

       Atom             a.u.   MegaHertz   Gauss  10(-4) cm-1        Axes

              Baa    -0.5240     2.517     0.898     0.839 -0.6175 -0.0711  0.7834
    24 N(14)  Bbb    -0.4808     2.309     0.824     0.770 -0.5888  0.7021 -0.4004
              Bcc     1.0048    -4.826    -1.722    -1.610  0.5216  0.7085  0.4754
 

 ---------------------------------------------------------------------------------

 No NMR shielding tensors so no spin-rotation constants.
 Leave Link  601 at Wed Nov 29 20:35:07 2017, MaxMem=  2147483648 cpu:         0.4
 FitSet:  NAtFit=    25 NAtPot=    25 NAtFrz=     0 MDM=    29 TotChg=   0.00000
 Merz-Kollman atomic radii used.
 Atom Element Radius
    1     1    1.20
    2     6    1.50
    3     1    1.20
    4     1    1.20
    5     6    1.50
    6     8    1.40
    7     1    1.20
    8     1    1.20
    9     6    1.50
   10     6    1.50
   11     1    1.20
   12     1    1.20
   13     1    1.20
   14     6    1.50
   15     6    1.50
   16     6    1.50
   17     6    1.50
   18     1    1.20
   19     6    1.50
   20     1    1.20
   21     1    1.20
   22     1    1.20
   23     6    1.50
   24     7    1.50
   25     1    1.20
 Generate VDW surfaces: Layer= 4 Dens= 6 Start= 1.400 Inc= 0.200

 **********************************************************************

            Electrostatic Properties Using The SCF Density

 **********************************************************************

       Atomic Center    1 is at  -4.811410  0.148895  1.022338
       Atomic Center    2 is at  -3.818967 -0.186006  1.288061
       Atomic Center    3 is at  -3.865098 -1.199769  1.668799
       Atomic Center    4 is at  -3.441322  0.459660  2.075067
       Atomic Center    5 is at  -2.919794 -0.057488  0.076357
       Atomic Center    6 is at  -3.111305  0.777550 -0.766309
       Atomic Center    7 is at   4.788013 -0.438999  0.801747
       Atomic Center    8 is at   3.595755  1.627265  0.697356
       Atomic Center    9 is at   3.985050 -1.062734  0.426816
       Atomic Center   10 is at   2.710180  1.117883  0.359168
       Atomic Center   11 is at   4.334253 -1.541638 -0.483309
       Atomic Center   12 is at   3.803986 -1.845850  1.157088
       Atomic Center   13 is at   1.551820  2.911821  0.255388
       Atomic Center   14 is at   2.734681 -0.252958  0.171143
       Atomic Center   15 is at   1.551977  1.845907  0.110319
       Atomic Center   16 is at   1.568849 -0.880477 -0.269279
       Atomic Center   17 is at   0.407545  1.212040 -0.326392
       Atomic Center   18 is at   1.577042 -1.947676 -0.422443
       Atomic Center   19 is at   0.408652 -0.169371 -0.518699
       Atomic Center   20 is at  -0.486720  1.775359 -0.524619
       Atomic Center   21 is at  -1.273279 -0.370347 -1.838432
       Atomic Center   22 is at  -0.610974 -1.889666 -1.286493
       Atomic Center   23 is at  -0.849185 -0.876262 -0.984760
       Atomic Center   24 is at  -1.889443 -0.935493  0.026684
       Atomic Center   25 is at  -1.719446 -1.504208  0.824793
      ESP Fit Center   26 is at  -5.231410  0.876356  2.477261
      ESP Fit Center   27 is at  -5.538871  0.568895  2.477261
      ESP Fit Center   28 is at  -5.651410  0.148895  2.477261
      ESP Fit Center   29 is at  -5.136505  1.291486  2.210277
      ESP Fit Center   30 is at  -5.527304  1.096891  2.210277
      ESP Fit Center   31 is at  -5.821417  0.774264  2.210277
      ESP Fit Center   32 is at  -5.979123  0.367178  2.210277
      ESP Fit Center   33 is at  -5.979123 -0.069388  2.210277
      ESP Fit Center   34 is at  -5.821417 -0.476475  2.210277
      ESP Fit Center   35 is at  -5.135161  1.567340  1.862338
      ESP Fit Center   36 is at  -5.538871  1.408895  1.862338
      ESP Fit Center   37 is at  -5.877944  1.138494  1.862338
      ESP Fit Center   38 is at  -6.122250  0.780162  1.862338
      ESP Fit Center   39 is at  -6.250082  0.365740  1.862338
      ESP Fit Center   40 is at  -6.250082 -0.067950  1.862338
      ESP Fit Center   41 is at  -6.122250 -0.482372  1.862338
      ESP Fit Center   42 is at  -5.877944 -0.840704  1.862338
      ESP Fit Center   43 is at  -4.811410  1.771650  1.457154
      ESP Fit Center   44 is at  -5.231410  1.716356  1.457154
      ESP Fit Center   45 is at  -5.622788  1.554242  1.457154
      ESP Fit Center   46 is at  -5.958871  1.296356  1.457154
      ESP Fit Center   47 is at  -6.216757  0.960273  1.457154
      ESP Fit Center   48 is at  -6.378871  0.568895  1.457154
      ESP Fit Center   49 is at  -6.434165  0.148895  1.457154
      ESP Fit Center   50 is at  -6.378871 -0.271105  1.457154
      ESP Fit Center   51 is at  -6.216757 -0.662483  1.457154
      ESP Fit Center   52 is at  -5.958871 -0.998566  1.457154
      ESP Fit Center   53 is at  -5.622788 -1.256452  1.457154
      ESP Fit Center   54 is at  -4.705922  1.825580  1.022338
      ESP Fit Center   55 is at  -5.126211  1.799138  1.022338
      ESP Fit Center   56 is at  -5.526719  1.669004  1.022338
      ESP Fit Center   57 is at  -5.882282  1.443357  1.022338
      ESP Fit Center   58 is at  -6.170559  1.136374  1.022338
      ESP Fit Center   59 is at  -6.373435  0.767344  1.022338
      ESP Fit Center   60 is at  -6.478163  0.359455  1.022338
      ESP Fit Center   61 is at  -6.478163 -0.061665  1.022338
      ESP Fit Center   62 is at  -6.373435 -0.469554  1.022338
      ESP Fit Center   63 is at  -6.170559 -0.838584  1.022338
      ESP Fit Center   64 is at  -5.882282 -1.145567  1.022338
      ESP Fit Center   65 is at  -4.391410  1.716356  0.587522
      ESP Fit Center   66 is at  -4.811410  1.771650  0.587522
      ESP Fit Center   67 is at  -5.231410  1.716356  0.587522
      ESP Fit Center   68 is at  -5.622788  1.554242  0.587522
      ESP Fit Center   69 is at  -5.958871  1.296356  0.587522
      ESP Fit Center   70 is at  -6.216757  0.960273  0.587522
      ESP Fit Center   71 is at  -6.378871  0.568895  0.587522
      ESP Fit Center   72 is at  -6.434165  0.148895  0.587522
      ESP Fit Center   73 is at  -6.378871 -0.271105  0.587522
      ESP Fit Center   74 is at  -6.216757 -0.662483  0.587522
      ESP Fit Center   75 is at  -5.958871 -0.998566  0.587522
      ESP Fit Center   76 is at  -5.622788 -1.256452  0.587522
      ESP Fit Center   77 is at  -4.702684  1.599749  0.182338
      ESP Fit Center   78 is at  -5.135161  1.567340  0.182338
      ESP Fit Center   79 is at  -5.538871  1.408895  0.182338
      ESP Fit Center   80 is at  -5.877944  1.138494  0.182338
      ESP Fit Center   81 is at  -6.122250  0.780162  0.182338
      ESP Fit Center   82 is at  -6.250082  0.365740  0.182338
      ESP Fit Center   83 is at  -6.250082 -0.067950  0.182338
      ESP Fit Center   84 is at  -6.122250 -0.482372  0.182338
      ESP Fit Center   85 is at  -5.877944 -0.840704  0.182338
      ESP Fit Center   86 is at  -5.538871 -1.111105  0.182338
      ESP Fit Center   87 is at  -5.136505  1.291486 -0.165601
      ESP Fit Center   88 is at  -5.527304  1.096891 -0.165601
      ESP Fit Center   89 is at  -5.821417  0.774264 -0.165601
      ESP Fit Center   90 is at  -5.979123  0.367178 -0.165601
      ESP Fit Center   91 is at  -5.979123 -0.069388 -0.165601
      ESP Fit Center   92 is at  -5.821417 -0.476475 -0.165601
      ESP Fit Center   93 is at  -5.527304 -0.799101 -0.165601
      ESP Fit Center   94 is at  -5.136505 -0.993696 -0.165601
      ESP Fit Center   95 is at  -5.231410  0.876356 -0.432585
      ESP Fit Center   96 is at  -5.538871  0.568895 -0.432585
      ESP Fit Center   97 is at  -5.651410  0.148895 -0.432585
      ESP Fit Center   98 is at  -5.538871 -0.271105 -0.432585
      ESP Fit Center   99 is at  -5.231410 -0.578566 -0.432585
      ESP Fit Center  100 is at  -5.246226  0.148895 -0.600417
      ESP Fit Center  101 is at  -5.028818 -0.227667 -0.600417
      ESP Fit Center  102 is at  -4.023812 -0.540808  3.347710
      ESP Fit Center  103 is at  -4.622602 -0.186006  3.228208
      ESP Fit Center  104 is at  -4.514936 -0.587824  3.228208
      ESP Fit Center  105 is at  -4.965799  0.028374  3.034147
      ESP Fit Center  106 is at  -4.965799 -0.400386  3.034147
      ESP Fit Center  107 is at  -4.810913 -0.800193  3.034147
      ESP Fit Center  108 is at  -5.068165  0.616805  2.772985
      ESP Fit Center  109 is at  -5.243741  0.232345  2.772985
      ESP Fit Center  110 is at  -5.303891 -0.186006  2.772985
      ESP Fit Center  111 is at  -5.243741 -0.604358  2.772985
      ESP Fit Center  112 is at  -2.569769 -0.988817  2.772985
      ESP Fit Center  113 is at  -5.125931  0.971863  2.454758
      ESP Fit Center  114 is at  -5.514315 -0.603872  2.454758
      ESP Fit Center  115 is at  -5.365050 -0.997453  2.454758
      ESP Fit Center  116 is at  -2.272885 -0.997453  2.454758
      ESP Fit Center  117 is at  -2.123619 -0.603872  2.454758
      ESP Fit Center  118 is at  -1.878820 -0.186006  2.091696
      ESP Fit Center  119 is at  -5.619814 -1.185558  1.697751
      ESP Fit Center  120 is at  -3.818967  1.913994  1.288061
      ESP Fit Center  121 is at  -4.228657  1.873643  1.288061
      ESP Fit Center  122 is at  -5.565053 -1.352704  1.288061
      ESP Fit Center  123 is at  -3.507079  1.849892  0.878371
      ESP Fit Center  124 is at  -3.923287  1.871000  0.878371
      ESP Fit Center  125 is at  -4.335223  1.807893  0.878371
      ESP Fit Center  126 is at  -5.381743 -1.527605  0.878371
      ESP Fit Center  127 is at  -5.227505 -1.520244  0.484426
      ESP Fit Center  128 is at  -4.907752 -1.791844  0.484426
      ESP Fit Center  129 is at  -5.125931 -1.343875  0.121364
      ESP Fit Center  130 is at  -4.810857 -1.623007  0.121364
      ESP Fit Center  131 is at  -4.438138 -1.818625  0.121364
      ESP Fit Center  132 is at  -4.029435 -1.919361  0.121364
      ESP Fit Center  133 is at  -5.068165 -0.988817 -0.196863
      ESP Fit Center  134 is at  -4.791386 -1.308237 -0.196863
      ESP Fit Center  135 is at  -4.435827 -1.536741 -0.196863
      ESP Fit Center  136 is at  -4.810913 -0.800193 -0.458025
      ESP Fit Center  137 is at  -3.865098 -1.199769  3.348799
      ESP Fit Center  138 is at  -3.430282 -1.199769  3.291554
      ESP Fit Center  139 is at  -3.647690 -0.823207  3.291554
      ESP Fit Center  140 is at  -4.082506 -0.823207  3.291554
      ESP Fit Center  141 is at  -4.299914 -1.199769  3.291554
      ESP Fit Center  142 is at  -4.082506 -1.576331  3.291554
      ESP Fit Center  143 is at  -3.647690 -1.576331  3.291554
      ESP Fit Center  144 is at  -3.025098 -1.199769  3.123722
      ESP Fit Center  145 is at  -4.705098 -1.199769  3.123722
      ESP Fit Center  146 is at  -4.592559 -1.619769  3.123722
      ESP Fit Center  147 is at  -4.285098 -1.927230  3.123722
      ESP Fit Center  148 is at  -3.865098 -2.039769  3.123722
      ESP Fit Center  149 is at  -3.445098 -1.927230  3.123722
      ESP Fit Center  150 is at  -3.137637 -1.619769  3.123722
      ESP Fit Center  151 is at  -2.677159 -1.199769  2.856738
      ESP Fit Center  152 is at  -5.032811 -0.981486  2.856738
      ESP Fit Center  153 is at  -5.032811 -1.418052  2.856738
      ESP Fit Center  154 is at  -4.875104 -1.825139  2.856738
      ESP Fit Center  155 is at  -4.580991 -2.147765  2.856738
      ESP Fit Center  156 is at  -4.190193 -2.342360  2.856738
      ESP Fit Center  157 is at  -3.755489 -2.382641  2.856738
      ESP Fit Center  158 is at  -3.335588 -2.263169  2.856738
      ESP Fit Center  159 is at  -2.987200 -2.000079  2.856738
      ESP Fit Center  160 is at  -2.757378 -1.628902  2.856738
      ESP Fit Center  161 is at  -2.410175 -1.199769  2.508799
      ESP Fit Center  162 is at  -5.303770 -1.416614  2.508799
      ESP Fit Center  163 is at  -5.175938 -1.831036  2.508799
      ESP Fit Center  164 is at  -4.931632 -2.189368  2.508799
      ESP Fit Center  165 is at  -4.592559 -2.459769  2.508799
      ESP Fit Center  166 is at  -4.188849 -2.618214  2.508799
      ESP Fit Center  167 is at  -3.756372 -2.650623  2.508799
      ESP Fit Center  168 is at  -3.333555 -2.554118  2.508799
      ESP Fit Center  169 is at  -2.957969 -2.337273  2.508799
      ESP Fit Center  170 is at  -2.662985 -2.019356  2.508799
      ESP Fit Center  171 is at  -2.474814 -1.628615  2.508799
      ESP Fit Center  172 is at  -5.487853 -1.199769  2.103615
      ESP Fit Center  173 is at  -5.432559 -1.619769  2.103615
      ESP Fit Center  174 is at  -5.270445 -2.011147  2.103615
      ESP Fit Center  175 is at  -5.012559 -2.347230  2.103615
      ESP Fit Center  176 is at  -4.676476 -2.605116  2.103615
      ESP Fit Center  177 is at  -4.285098 -2.767230  2.103615
      ESP Fit Center  178 is at  -3.865098 -2.822524  2.103615
      ESP Fit Center  179 is at  -3.445098 -2.767230  2.103615
      ESP Fit Center  180 is at  -3.053720 -2.605116  2.103615
      ESP Fit Center  181 is at  -2.717637 -2.347230  2.103615
      ESP Fit Center  182 is at  -5.531851 -1.410329  1.668799
      ESP Fit Center  183 is at  -5.427123 -1.818218  1.668799
      ESP Fit Center  184 is at  -5.224247 -2.187248  1.668799
      ESP Fit Center  185 is at  -4.935970 -2.494231  1.668799
      ESP Fit Center  186 is at  -4.580407 -2.719878  1.668799
      ESP Fit Center  187 is at  -4.179899 -2.850012  1.668799
      ESP Fit Center  188 is at  -3.759610 -2.876454  1.668799
      ESP Fit Center  189 is at  -3.345950 -2.797544  1.668799
      ESP Fit Center  190 is at  -2.964909 -2.618240  1.668799
      ESP Fit Center  191 is at  -5.432559 -1.619769  1.233983
      ESP Fit Center  192 is at  -5.270445 -2.011147  1.233983
      ESP Fit Center  193 is at  -5.012559 -2.347230  1.233983
      ESP Fit Center  194 is at  -4.676476 -2.605116  1.233983
      ESP Fit Center  195 is at  -4.285098 -2.767230  1.233983
      ESP Fit Center  196 is at  -3.865098 -2.822524  1.233983
      ESP Fit Center  197 is at  -3.445098 -2.767230  1.233983
      ESP Fit Center  198 is at  -3.053720 -2.605116  1.233983
      ESP Fit Center  199 is at  -5.175938 -1.831036  0.828799
      ESP Fit Center  200 is at  -4.931632 -2.189368  0.828799
      ESP Fit Center  201 is at  -4.592559 -2.459769  0.828799
      ESP Fit Center  202 is at  -4.188849 -2.618214  0.828799
      ESP Fit Center  203 is at  -3.756372 -2.650623  0.828799
      ESP Fit Center  204 is at  -3.333555 -2.554118  0.828799
      ESP Fit Center  205 is at  -4.875104 -1.825139  0.480860
      ESP Fit Center  206 is at  -4.580991 -2.147765  0.480860
      ESP Fit Center  207 is at  -4.190193 -2.342360  0.480860
      ESP Fit Center  208 is at  -3.755489 -2.382641  0.480860
      ESP Fit Center  209 is at  -3.865098 -2.039769  0.213876
      ESP Fit Center  210 is at  -3.441322  0.459660  3.755067
      ESP Fit Center  211 is at  -3.006506  0.459660  3.697822
      ESP Fit Center  212 is at  -3.223914  0.836222  3.697822
      ESP Fit Center  213 is at  -3.658730  0.836222  3.697822
      ESP Fit Center  214 is at  -3.876138  0.459660  3.697822
      ESP Fit Center  215 is at  -3.658730  0.083098  3.697822
      ESP Fit Center  216 is at  -3.223914  0.083098  3.697822
      ESP Fit Center  217 is at  -2.601322  0.459660  3.529990
      ESP Fit Center  218 is at  -2.713861  0.879660  3.529990
      ESP Fit Center  219 is at  -3.021322  1.187121  3.529990
      ESP Fit Center  220 is at  -3.441322  1.299660  3.529990
      ESP Fit Center  221 is at  -3.861322  1.187121  3.529990
      ESP Fit Center  222 is at  -4.168783  0.879660  3.529990
      ESP Fit Center  223 is at  -4.281322  0.459660  3.529990
      ESP Fit Center  224 is at  -4.168783  0.039660  3.529990
      ESP Fit Center  225 is at  -3.861322 -0.267801  3.529990
      ESP Fit Center  226 is at  -3.441322 -0.380340  3.529990
      ESP Fit Center  227 is at  -3.021322 -0.267801  3.529990
      ESP Fit Center  228 is at  -2.713861  0.039660  3.529990
      ESP Fit Center  229 is at  -2.253383  0.459660  3.263006
      ESP Fit Center  230 is at  -2.333602  0.888793  3.263006
      ESP Fit Center  231 is at  -2.563424  1.259970  3.263006
      ESP Fit Center  232 is at  -2.911812  1.523060  3.263006
      ESP Fit Center  233 is at  -3.331713  1.642532  3.263006
      ESP Fit Center  234 is at  -3.766417  1.602251  3.263006
      ESP Fit Center  235 is at  -4.157216  1.407656  3.263006
      ESP Fit Center  236 is at  -4.451329  1.085029  3.263006
      ESP Fit Center  237 is at  -4.609035  0.677943  3.263006
      ESP Fit Center  238 is at  -4.609035  0.241377  3.263006
      ESP Fit Center  239 is at  -3.331713 -0.723212  3.263006
      ESP Fit Center  240 is at  -2.911812 -0.603740  3.263006
      ESP Fit Center  241 is at  -2.563424 -0.340650  3.263006
      ESP Fit Center  242 is at  -2.333602  0.030527  3.263006
      ESP Fit Center  243 is at  -1.986399  0.459660  2.915067
      ESP Fit Center  244 is at  -2.051038  0.888506  2.915067
      ESP Fit Center  245 is at  -2.239209  1.279247  2.915067
      ESP Fit Center  246 is at  -2.534193  1.597164  2.915067
      ESP Fit Center  247 is at  -2.909779  1.814009  2.915067
      ESP Fit Center  248 is at  -3.332596  1.910514  2.915067
      ESP Fit Center  249 is at  -3.765073  1.878105  2.915067
      ESP Fit Center  250 is at  -4.168783  1.719660  2.915067
      ESP Fit Center  251 is at  -4.507856  1.449259  2.915067
      ESP Fit Center  252 is at  -4.752162  1.090927  2.915067
      ESP Fit Center  253 is at  -4.879994  0.676505  2.915067
      ESP Fit Center  254 is at  -2.534193 -0.677844  2.915067
      ESP Fit Center  255 is at  -2.239209 -0.359927  2.915067
      ESP Fit Center  256 is at  -2.051038  0.030814  2.915067
      ESP Fit Center  257 is at  -1.818567  0.459660  2.509883
      ESP Fit Center  258 is at  -1.873861  0.879660  2.509883
      ESP Fit Center  259 is at  -2.035975  1.271038  2.509883
      ESP Fit Center  260 is at  -2.293861  1.607121  2.509883
      ESP Fit Center  261 is at  -2.629944  1.865007  2.509883
      ESP Fit Center  262 is at  -3.021322  2.027121  2.509883
      ESP Fit Center  263 is at  -3.441322  2.082415  2.509883
      ESP Fit Center  264 is at  -3.861322  2.027121  2.509883
      ESP Fit Center  265 is at  -4.252700  1.865007  2.509883
      ESP Fit Center  266 is at  -4.588783  1.607121  2.509883
      ESP Fit Center  267 is at  -4.846669  1.271038  2.509883
      ESP Fit Center  268 is at  -2.035975 -0.351718  2.509883
      ESP Fit Center  269 is at  -1.873861  0.039660  2.509883
      ESP Fit Center  270 is at  -1.761322  0.459660  2.075067
      ESP Fit Center  271 is at  -1.814102  0.877459  2.075067
      ESP Fit Center  272 is at  -1.969127  1.269006  2.075067
      ESP Fit Center  273 is at  -2.216655  1.609699  2.075067
      ESP Fit Center  274 is at  -2.541133  1.878131  2.075067
      ESP Fit Center  275 is at  -2.922174  2.057435  2.075067
      ESP Fit Center  276 is at  -3.335834  2.136345  2.075067
      ESP Fit Center  277 is at  -3.756123  2.109903  2.075067
      ESP Fit Center  278 is at  -4.156631  1.979769  2.075067
      ESP Fit Center  279 is at  -4.512194  1.754122  2.075067
      ESP Fit Center  280 is at  -1.814102  0.041861  2.075067
      ESP Fit Center  281 is at  -1.873861  0.879660  1.640251
      ESP Fit Center  282 is at  -2.035975  1.271038  1.640251
      ESP Fit Center  283 is at  -2.293861  1.607121  1.640251
      ESP Fit Center  284 is at  -2.629944  1.865007  1.640251
      ESP Fit Center  285 is at  -3.021322  2.027121  1.640251
      ESP Fit Center  286 is at  -3.441322  2.082415  1.640251
      ESP Fit Center  287 is at  -3.861322  2.027121  1.640251
      ESP Fit Center  288 is at  -4.252700  1.865007  1.640251
      ESP Fit Center  289 is at  -2.909779  1.814009  1.235067
      ESP Fit Center  290 is at  -3.332596  1.910514  1.235067
      ESP Fit Center  291 is at  -1.670596  0.745323  1.561281
      ESP Fit Center  292 is at  -1.947376  1.064743  1.561281
      ESP Fit Center  293 is at  -1.373712  0.753959  1.243054
      ESP Fit Center  294 is at  -1.612830  1.100381  1.243054
      ESP Fit Center  295 is at  -1.927904  1.379513  1.243054
      ESP Fit Center  296 is at  -2.300623  1.575131  1.243054
      ESP Fit Center  297 is at  -1.375256  1.116639  0.879992
      ESP Fit Center  298 is at  -1.663770  1.421218  0.879992
      ESP Fit Center  299 is at  -2.011013  1.656655  0.879992
      ESP Fit Center  300 is at  -2.400750  1.811941  0.879992
      ESP Fit Center  301 is at  -2.814757  1.879814  0.879992
      ESP Fit Center  302 is at  -3.233675  1.857101  0.879992
      ESP Fit Center  303 is at  -1.830314  1.690421  0.486047
      ESP Fit Center  304 is at  -3.723429 -1.997635  0.076357
      ESP Fit Center  305 is at  -4.482570 -1.399087 -0.333333
      ESP Fit Center  306 is at  -4.180518 -1.686209 -0.333333
      ESP Fit Center  307 is at  -3.826851 -1.906650 -0.333333
      ESP Fit Center  308 is at  -4.848568 -0.267255 -0.727278
      ESP Fit Center  309 is at  -4.758381 -0.676980 -0.727278
      ESP Fit Center  310 is at  -4.582223 -1.057738 -0.727278
      ESP Fit Center  311 is at  -4.328332 -1.391726 -0.727278
      ESP Fit Center  312 is at  -4.008579 -1.663326 -0.727278
      ESP Fit Center  313 is at  -3.637917 -1.859839 -0.727278
      ESP Fit Center  314 is at  -4.615142 -0.475354 -1.090340
      ESP Fit Center  315 is at  -4.465877 -0.868935 -1.090340
      ESP Fit Center  316 is at  -4.226758 -1.215357 -1.090340
      ESP Fit Center  317 is at  -3.911684 -1.494489 -1.090340
      ESP Fit Center  318 is at  -3.538965 -1.690107 -1.090340
      ESP Fit Center  319 is at  -4.168992 -0.860299 -1.408567
      ESP Fit Center  320 is at  -3.892213 -1.179719 -1.408567
      ESP Fit Center  321 is at  -3.536654 -1.408223 -1.408567
      ESP Fit Center  322 is at  -3.622886 -0.988533 -1.669729
      ESP Fit Center  323 is at  -3.239076 -1.179648 -1.669729
      ESP Fit Center  324 is at  -2.919794 -0.861123 -1.863790
      ESP Fit Center  325 is at  -3.005006  1.924695  0.819364
      ESP Fit Center  326 is at  -3.426581  1.885630  0.819364
      ESP Fit Center  327 is at  -2.157459  1.878347  0.545187
      ESP Fit Center  328 is at  -2.506227  2.102487  0.545187
      ESP Fit Center  329 is at  -2.904014  2.219288  0.545187
      ESP Fit Center  330 is at  -3.318596  2.219288  0.545187
      ESP Fit Center  331 is at  -3.716384  2.102487  0.545187
      ESP Fit Center  332 is at  -4.065152  1.878347  0.545187
      ESP Fit Center  333 is at  -2.201787  2.210720  0.213691
      ESP Fit Center  334 is at  -2.586777  2.391883  0.213691
      ESP Fit Center  335 is at  -3.004724  2.471610  0.213691
      ESP Fit Center  336 is at  -3.429368  2.444894  0.213691
      ESP Fit Center  337 is at  -3.834027  2.313412  0.213691
      ESP Fit Center  338 is at  -4.193275  2.085427  0.213691
      ESP Fit Center  339 is at  -4.484538  1.775262  0.213691
      ESP Fit Center  340 is at  -2.302515  2.457020 -0.160636
      ESP Fit Center  341 is at  -2.696510  2.594885 -0.160636
      ESP Fit Center  342 is at  -3.111305  2.641621 -0.160636
      ESP Fit Center  343 is at  -3.526100  2.594885 -0.160636
      ESP Fit Center  344 is at  -3.920095  2.457020 -0.160636
      ESP Fit Center  345 is at  -4.273534  2.234939 -0.160636
      ESP Fit Center  346 is at  -4.568694  1.939779 -0.160636
      ESP Fit Center  347 is at  -4.790775  1.586340 -0.160636
      ESP Fit Center  348 is at  -2.198254  2.499747 -0.561433
      ESP Fit Center  349 is at  -2.589822  2.655762 -0.561433
      ESP Fit Center  350 is at  -3.005774  2.723954 -0.561433
      ESP Fit Center  351 is at  -3.426661  2.701134 -0.561433
      ESP Fit Center  352 is at  -3.832802  2.588370 -0.561433
      ESP Fit Center  353 is at  -4.205206  2.390933 -0.561433
      ESP Fit Center  354 is at  -4.526461  2.118057 -0.561433
      ESP Fit Center  355 is at  -4.781545  1.782500 -0.561433
      ESP Fit Center  356 is at  -4.958530  1.399953 -0.561433
      ESP Fit Center  357 is at  -5.049141  0.988302 -0.561433
      ESP Fit Center  358 is at  -2.198254  2.499747 -0.971185
      ESP Fit Center  359 is at  -2.589822  2.655762 -0.971185
      ESP Fit Center  360 is at  -3.005774  2.723954 -0.971185
      ESP Fit Center  361 is at  -3.426661  2.701134 -0.971185
      ESP Fit Center  362 is at  -3.832802  2.588370 -0.971185
      ESP Fit Center  363 is at  -4.205206  2.390933 -0.971185
      ESP Fit Center  364 is at  -4.526461  2.118057 -0.971185
      ESP Fit Center  365 is at  -4.781545  1.782500 -0.971185
      ESP Fit Center  366 is at  -4.958530  1.399953 -0.971185
      ESP Fit Center  367 is at  -5.049141  0.988302 -0.971185
      ESP Fit Center  368 is at  -5.049141  0.566798 -0.971185
      ESP Fit Center  369 is at  -4.958530  0.155147 -0.971185
      ESP Fit Center  370 is at  -4.781545 -0.227400 -0.971185
      ESP Fit Center  371 is at  -1.949076  2.234939 -1.371982
      ESP Fit Center  372 is at  -2.302515  2.457020 -1.371982
      ESP Fit Center  373 is at  -2.696510  2.594885 -1.371982
      ESP Fit Center  374 is at  -3.111305  2.641621 -1.371982
      ESP Fit Center  375 is at  -3.526100  2.594885 -1.371982
      ESP Fit Center  376 is at  -3.920095  2.457020 -1.371982
      ESP Fit Center  377 is at  -4.273534  2.234939 -1.371982
      ESP Fit Center  378 is at  -4.568694  1.939779 -1.371982
      ESP Fit Center  379 is at  -4.790775  1.586340 -1.371982
      ESP Fit Center  380 is at  -4.928640  1.192345 -1.371982
      ESP Fit Center  381 is at  -4.975376  0.777550 -1.371982
      ESP Fit Center  382 is at  -4.928640  0.362755 -1.371982
      ESP Fit Center  383 is at  -4.790775 -0.031240 -1.371982
      ESP Fit Center  384 is at  -4.568694 -0.384679 -1.371982
      ESP Fit Center  385 is at  -1.873947  1.939507 -1.746309
      ESP Fit Center  386 is at  -2.201787  2.210720 -1.746309
      ESP Fit Center  387 is at  -2.586777  2.391883 -1.746309
      ESP Fit Center  388 is at  -3.004724  2.471610 -1.746309
      ESP Fit Center  389 is at  -3.429368  2.444894 -1.746309
      ESP Fit Center  390 is at  -3.834027  2.313412 -1.746309
      ESP Fit Center  391 is at  -4.193275  2.085427 -1.746309
      ESP Fit Center  392 is at  -4.484538  1.775262 -1.746309
      ESP Fit Center  393 is at  -4.689517  1.402408 -1.746309
      ESP Fit Center  394 is at  -4.795330  0.990292 -1.746309
      ESP Fit Center  395 is at  -4.795330  0.564808 -1.746309
      ESP Fit Center  396 is at  -4.689517  0.152692 -1.746309
      ESP Fit Center  397 is at  -4.484538 -0.220162 -1.746309
      ESP Fit Center  398 is at  -4.193275 -0.530327 -1.746309
      ESP Fit Center  399 is at  -3.834027 -0.758312 -1.746309
      ESP Fit Center  400 is at  -1.885966  1.565028 -2.077805
      ESP Fit Center  401 is at  -2.157459  1.878347 -2.077805
      ESP Fit Center  402 is at  -2.506227  2.102487 -2.077805
      ESP Fit Center  403 is at  -2.904014  2.219288 -2.077805
      ESP Fit Center  404 is at  -3.318596  2.219288 -2.077805
      ESP Fit Center  405 is at  -3.716384  2.102487 -2.077805
      ESP Fit Center  406 is at  -4.065152  1.878347 -2.077805
      ESP Fit Center  407 is at  -4.336645  1.565028 -2.077805
      ESP Fit Center  408 is at  -4.508868  1.187911 -2.077805
      ESP Fit Center  409 is at  -4.567869  0.777550 -2.077805
      ESP Fit Center  410 is at  -4.508868  0.367189 -2.077805
      ESP Fit Center  411 is at  -4.336645 -0.009928 -2.077805
      ESP Fit Center  412 is at  -4.065152 -0.323248 -2.077805
      ESP Fit Center  413 is at  -3.716384 -0.547387 -2.077805
      ESP Fit Center  414 is at  -3.318596 -0.664188 -2.077805
      ESP Fit Center  415 is at  -2.037042  1.193722 -2.351982
      ESP Fit Center  416 is at  -2.259923  1.553687 -2.351982
      ESP Fit Center  417 is at  -2.597788  1.808831 -2.351982
      ESP Fit Center  418 is at  -3.005006  1.924695 -2.351982
      ESP Fit Center  419 is at  -3.426581  1.885630 -2.351982
      ESP Fit Center  420 is at  -3.805576  1.696913 -2.351982
      ESP Fit Center  421 is at  -4.090805  1.384031 -2.351982
      ESP Fit Center  422 is at  -4.243748  0.989240 -2.351982
      ESP Fit Center  423 is at  -4.243748  0.565860 -2.351982
[...]
 ! R12   R(10,14)                1.3839         -DE/DX =    0.0                 !
 ! R13   R(10,15)                1.3905         -DE/DX =    0.0                 !
 ! R14   R(13,15)                1.0757         -DE/DX =    0.0                 !
 ! R15   R(14,16)                1.3953         -DE/DX =    0.0                 !
 ! R16   R(15,17)                1.3792         -DE/DX =    0.0                 !
 ! R17   R(16,18)                1.0782         -DE/DX =    0.0                 !
 ! R18   R(16,19)                1.3835         -DE/DX =    0.0                 !
 ! R19   R(17,19)                1.3947         -DE/DX =    0.0                 !
 ! R20   R(17,20)                1.0753         -DE/DX =    0.0                 !
 ! R21   R(19,23)                1.5163         -DE/DX =    0.0                 !
 ! R22   R(21,23)                1.0791         -DE/DX =    0.0                 !
 ! R23   R(22,23)                1.0839         -DE/DX =    0.0                 !
 ! R24   R(23,24)                1.4521         -DE/DX =    0.0                 !
 ! R25   R(24,25)                0.9946         -DE/DX =    0.0                 !
 ! A1    A(1,2,3)              109.7039         -DE/DX =    0.0                 !
 ! A2    A(1,2,4)              108.263          -DE/DX =    0.0                 !
 ! A3    A(1,2,5)              108.8            -DE/DX =    0.0                 !
 ! A4    A(3,2,4)              108.4442         -DE/DX =    0.0                 !
 ! A5    A(3,2,5)              112.6883         -DE/DX =    0.0                 !
 ! A6    A(4,2,5)              108.8439         -DE/DX =    0.0                 !
 ! A7    A(2,5,6)              121.6977         -DE/DX =    0.0                 !
 ! A8    A(2,5,24)             115.2119         -DE/DX =    0.0                 !
 ! A9    A(6,5,24)             123.0864         -DE/DX =    0.0                 !
 ! A10   A(7,9,11)             107.787          -DE/DX =    0.0                 !
 ! A11   A(7,9,12)             107.8145         -DE/DX =    0.0                 !
 ! A12   A(7,9,14)             111.292          -DE/DX =    0.0                 !
 ! A13   A(11,9,12)            107.4059         -DE/DX =    0.0                 !
 ! A14   A(11,9,14)            111.1288         -DE/DX =    0.0                 !
 ! A15   A(12,9,14)            111.2331         -DE/DX =    0.0                 !
 ! A16   A(8,10,14)            119.802          -DE/DX =    0.0                 !
 ! A17   A(8,10,15)            119.5951         -DE/DX =    0.0                 !
 ! A18   A(14,10,15)           120.6025         -DE/DX =    0.0                 !
 ! A19   A(9,14,10)            121.4911         -DE/DX =    0.0                 !
 ! A20   A(9,14,16)            120.2414         -DE/DX =    0.0                 !
 ! A21   A(10,14,16)           118.2671         -DE/DX =    0.0                 !
 ! A22   A(10,15,13)           119.6558         -DE/DX =    0.0                 !
 ! A23   A(10,15,17)           120.4779         -DE/DX =    0.0                 !
 ! A24   A(13,15,17)           119.8656         -DE/DX =    0.0                 !
 ! A25   A(14,16,18)           118.9239         -DE/DX =    0.0                 !
 ! A26   A(14,16,19)           121.7651         -DE/DX =    0.0                 !
 ! A27   A(18,16,19)           119.3104         -DE/DX =    0.0                 !
 ! A28   A(15,17,19)           119.8807         -DE/DX =    0.0                 !
 ! A29   A(15,17,20)           120.5085         -DE/DX =    0.0                 !
 ! A30   A(19,17,20)           119.6102         -DE/DX =    0.0                 !
 ! A31   A(16,19,17)           119.0063         -DE/DX =    0.0                 !
 ! A32   A(16,19,23)           120.7621         -DE/DX =    0.0                 !
 ! A33   A(17,19,23)           120.2302         -DE/DX =    0.0                 !
 ! A34   A(19,23,21)           110.524          -DE/DX =    0.0                 !
 ! A35   A(19,23,22)           109.8247         -DE/DX =    0.0                 !
 ! A36   A(19,23,24)           113.5279         -DE/DX =    0.0                 !
 ! A37   A(21,23,22)           107.727          -DE/DX =    0.0                 !
 ! A38   A(21,23,24)           106.7737         -DE/DX =    0.0                 !
 ! A39   A(22,23,24)           108.2526         -DE/DX =    0.0                 !
 ! A40   A(5,24,23)            122.9557         -DE/DX =    0.0                 !
 ! A41   A(5,24,25)            118.1108         -DE/DX =    0.0                 !
 ! A42   A(23,24,25)           117.3732         -DE/DX =    0.0                 !
 ! D1    D(1,2,5,6)             29.141          -DE/DX =    0.0                 !
 ! D2    D(1,2,5,24)          -151.566          -DE/DX =    0.0                 !
 ! D3    D(3,2,5,6)            151.0353         -DE/DX =    0.0                 !
 ! D4    D(3,2,5,24)           -29.6716         -DE/DX =    0.0                 !
 ! D5    D(4,2,5,6)            -88.6321         -DE/DX =    0.0                 !
 ! D6    D(4,2,5,24)            90.6609         -DE/DX =    0.0                 !
 ! D7    D(2,5,24,23)         -173.5966         -DE/DX =    0.0                 !
 ! D8    D(2,5,24,25)           -8.2303         -DE/DX =    0.0                 !
 ! D9    D(6,5,24,23)            5.6855         -DE/DX =    0.0                 !
 ! D10   D(6,5,24,25)          171.0517         -DE/DX =    0.0                 !
 ! D11   D(7,9,14,10)            2.5772         -DE/DX =    0.0                 !
 ! D12   D(7,9,14,16)         -177.6518         -DE/DX =    0.0                 !
 ! D13   D(11,9,14,10)        -117.5615         -DE/DX =    0.0                 !
 ! D14   D(11,9,14,16)          62.2095         -DE/DX =    0.0                 !
 ! D15   D(12,9,14,10)         122.8213         -DE/DX =    0.0                 !
 ! D16   D(12,9,14,16)         -57.4077         -DE/DX =    0.0                 !
 ! D17   D(8,10,14,9)           -0.1651         -DE/DX =    0.0                 !
 ! D18   D(8,10,14,16)        -179.9404         -DE/DX =    0.0                 !
 ! D19   D(15,10,14,9)         179.5962         -DE/DX =    0.0                 !
 ! D20   D(15,10,14,16)         -0.1791         -DE/DX =    0.0                 !
 ! D21   D(8,10,15,13)           0.1618         -DE/DX =    0.0                 !
 ! D22   D(8,10,15,17)         179.8602         -DE/DX =    0.0                 !
 ! D23   D(14,10,15,13)       -179.6            -DE/DX =    0.0                 !
 ! D24   D(14,10,15,17)          0.0984         -DE/DX =    0.0                 !
 ! D25   D(9,14,16,18)           0.0195         -DE/DX =    0.0                 !
 ! D26   D(9,14,16,19)        -179.7088         -DE/DX =    0.0                 !
 ! D27   D(10,14,16,18)        179.7978         -DE/DX =    0.0                 !
 ! D28   D(10,14,16,19)          0.0695         -DE/DX =    0.0                 !
 ! D29   D(10,15,17,19)          0.0966         -DE/DX =    0.0                 !
 ! D30   D(10,15,17,20)       -179.6331         -DE/DX =    0.0                 !
 ! D31   D(13,15,17,19)        179.7944         -DE/DX =    0.0                 !
 ! D32   D(13,15,17,20)          0.0647         -DE/DX =    0.0                 !
 ! D33   D(14,16,19,17)          0.1208         -DE/DX =    0.0                 !
 ! D34   D(14,16,19,23)       -179.4435         -DE/DX =    0.0                 !
 ! D35   D(18,16,19,17)       -179.6064         -DE/DX =    0.0                 !
 ! D36   D(18,16,19,23)          0.8293         -DE/DX =    0.0                 !
 ! D37   D(15,17,19,16)         -0.2033         -DE/DX =    0.0                 !
 ! D38   D(15,17,19,23)        179.3634         -DE/DX =    0.0                 !
 ! D39   D(20,17,19,16)        179.5289         -DE/DX =    0.0                 !
 ! D40   D(20,17,19,23)         -0.9044         -DE/DX =    0.0                 !
 ! D41   D(16,19,23,21)       -131.5563         -DE/DX =    0.0                 !
 ! D42   D(16,19,23,22)        -12.8342         -DE/DX =    0.0                 !
 ! D43   D(16,19,23,24)        108.5041         -DE/DX =    0.0                 !
 ! D44   D(17,19,23,21)         48.8847         -DE/DX =    0.0                 !
 ! D45   D(17,19,23,22)        167.6068         -DE/DX =    0.0                 !
 ! D46   D(17,19,23,24)        -71.0549         -DE/DX =    0.0                 !
 ! D47   D(19,23,24,5)          97.4971         -DE/DX =    0.0                 !
 ! D48   D(19,23,24,25)        -67.9701         -DE/DX =    0.0                 !
 ! D49   D(21,23,24,5)         -24.55           -DE/DX =    0.0                 !
 ! D50   D(21,23,24,25)        169.9828         -DE/DX =    0.0                 !
 ! D51   D(22,23,24,5)        -140.2888         -DE/DX =    0.0                 !
 ! D52   D(22,23,24,25)         54.244          -DE/DX =    0.0                 !
 --------------------------------------------------------------------------------
 GradGradGradGradGradGradGradGradGradGradGradGradGradGradGradGradGradGrad

                          Input orientation:                          
 ---------------------------------------------------------------------
 Center     Atomic      Atomic             Coordinates (Angstroms)
 Number     Number       Type             X           Y           Z
 ---------------------------------------------------------------------
      1          1           0       -4.811410    0.148895    1.022338
      2          6           0       -3.818967   -0.186006    1.288061
      3          1           0       -3.865098   -1.199769    1.668799
      4          1           0       -3.441322    0.459660    2.075067
      5          6           0       -2.919794   -0.057488    0.076357
      6          8           0       -3.111305    0.777550   -0.766309
      7          1           0        4.788013   -0.438999    0.801747
      8          1           0        3.595755    1.627265    0.697356
      9          6           0        3.985050   -1.062734    0.426816
     10          6           0        2.710180    1.117883    0.359168
     11          1           0        4.334253   -1.541638   -0.483309
     12          1           0        3.803986   -1.845850    1.157088
     13          1           0        1.551820    2.911821    0.255388
     14          6           0        2.734681   -0.252958    0.171143
     15          6           0        1.551977    1.845907    0.110319
     16          6           0        1.568849   -0.880477   -0.269279
     17          6           0        0.407545    1.212040   -0.326392
     18          1           0        1.577042   -1.947676   -0.422443
     19          6           0        0.408652   -0.169371   -0.518699
     20          1           0       -0.486720    1.775359   -0.524619
     21          1           0       -1.273279   -0.370347   -1.838432
     22          1           0       -0.610974   -1.889666   -1.286493
     23          6           0       -0.849185   -0.876262   -0.984760
     24          7           0       -1.889443   -0.935493    0.026684
     25          1           0       -1.719446   -1.504208    0.824793
 ---------------------------------------------------------------------
                    Distance matrix (angstroms):
                    1          2          3          4          5
     1  H    0.000000
     2  C    1.080607   0.000000
     3  H    1.769834   1.083884   0.000000
     4  H    1.755550   1.085762   1.760211   0.000000
     5  C    2.125014   1.514350   2.175839   2.129384   0.000000
     6  O    2.546531   2.376902   3.226104   2.878087   1.201687
     7  H    9.619938   8.624419   8.729655   8.375613   7.751260
     8  H    8.542342   7.656042   8.037422   7.265111   6.758433
     9  C    8.899461   7.900195   7.948970   7.757926   6.986431
    10  C    7.612690   6.722554   7.093724   6.420167   5.758306
    11  H    9.421679   8.452839   8.483973   8.426746   7.425438
    12  H    8.844332   7.802669   7.713243   7.658495   7.040983
    13  H    6.979446   6.285563   6.945927   5.852845   5.370678
    14  C    7.604572   6.648480   6.833484   6.501982   5.658647
    15  C    6.648633   5.861978   6.407004   5.542107   4.860124
    16  C    6.590568   5.651209   5.778051   5.691550   4.576537
    17  C    5.494255   4.735440   5.296517   4.598571   3.584005
    18  H    6.877159   5.928425   5.877886   6.100557   4.903381
    19  C    5.452076   4.597545   4.910377   4.684613   3.383070
    20  H    4.872515   4.270437   5.007585   4.149591   3.104891
    21  H    4.579518   4.036021   4.439159   4.550252   2.544663
    22  H    5.208656   4.452191   4.449610   4.983000   3.247289
    23  C    4.558357   3.802864   4.030107   4.226867   2.466532
    24  N    3.271867   2.424018   2.582556   2.924150   1.354616
    25  H    3.511697   2.521956   2.325694   2.895655   2.023361
                    6          7          8          9         10
     6  O    0.000000
     7  H    8.144815   0.000000
     8  H    6.917296   2.387849   0.000000
     9  C    7.427546   1.083683   2.731453   0.000000
    10  C    5.939041   2.633847   1.076143   2.526848   0.000000
    11  H    7.803528   1.753020   3.461401   1.086103   3.228069
    12  H    7.642181   1.753227   3.509593   1.085980   3.258343
    13  H    5.229122   4.690357   2.454198   4.663377   2.137939
    14  C    6.009685   2.156025   2.133914   1.511466   1.383893
    15  C    4.863750   4.021293   2.137626   3.805287   1.390460
    16  C    4.989983   3.421259   3.366230   2.521070   2.385587
    17  C    3.572760   4.815301   3.374189   4.305864   2.404368
    18  H    5.433755   3.753010   4.255509   2.702381   3.360442
    19  C    3.653501   4.582039   3.855427   3.805617   2.779335
    20  H    2.818241   5.872430   4.264007   5.381146   3.381349
    21  H    2.417738   6.611696   5.841932   5.767215   4.786671
    22  H    3.692734   5.967767   5.831040   4.974202   4.773219
    23  C    2.810694   5.929655   5.371653   5.039558   4.295560
    24  N    2.248622   6.740597   6.091381   5.889479   5.048112
    25  H    3.110514   6.594105   6.170391   5.735378   5.168535
                   11         12         13         14         15
    11  H    0.000000
    12  H    1.750609   0.000000
    13  H    5.302915   5.340482   0.000000
    14  C    2.155837   2.157036   3.379657   0.000000
    15  C    4.423677   4.449308   1.075741   2.409922   0.000000
    16  C    2.851386   2.821756   3.828458   1.395319   2.752735
    17  C    4.798583   4.804916   2.130044   2.794516   1.379213
    18  H    2.787613   2.732136   4.906608   2.136479   3.830892
    19  C    4.158691   4.140910   3.376357   2.427608   2.400875
    20  H    5.852004   5.861011   2.460813   3.869829   2.136448
    21  H    5.886654   6.076913   4.810186   4.485077   4.085521
    22  H    5.022101   5.046274   5.487199   3.999615   4.536953
    23  C    5.249972   5.213407   4.653210   3.816899   3.791435
    24  N    6.273906   5.875517   5.166858   4.676456   4.425670
    25  H    6.193529   5.543955   5.525099   4.672487   4.736660
                   16         17         18         19         20
    16  C    0.000000
    17  C    2.393850   0.000000
    18  H    1.078165   3.370572   0.000000
    19  C    1.383452   1.394733   2.129969   0.000000
    20  H    3.368090   1.075329   4.257998   2.140958   0.000000
    21  H    3.286360   2.759598   3.552087   2.147319   2.636064
    22  H    2.608604   3.402904   2.353160   2.142092   3.745437
    23  C    2.521670   2.524643   2.711219   1.516266   2.715549
    24  N    3.471369   3.164287   3.639059   2.483068   3.101658
    25  H    3.521210   3.636938   3.552337   2.848782   3.754475
                   21         22         23         24         25
    21  H    0.000000
    22  H    1.746887   0.000000
    23  C    1.079149   1.083870   0.000000
    24  N    2.043944   2.066244   1.452124   0.000000
    25  H    2.928732   2.415537   2.103842   0.994643   0.000000
 Stoichiometry    C10H13NO
 Framework group  C1[X(C10H13NO)]
 Deg. of freedom    69
 Full point group                 C1      NOp   1
 Largest Abelian subgroup         C1      NOp   1
 Largest concise Abelian subgroup C1      NOp   1
                         Standard orientation:                         
 ---------------------------------------------------------------------
 Center     Atomic      Atomic             Coordinates (Angstroms)
 Number     Number       Type             X           Y           Z
 ---------------------------------------------------------------------
      1          1           0       -4.811410    0.148895    1.022338
      2          6           0       -3.818967   -0.186006    1.288061
      3          1           0       -3.865098   -1.199769    1.668799
      4          1           0       -3.441322    0.459660    2.075067
      5          6           0       -2.919794   -0.057488    0.076357
      6          8           0       -3.111305    0.777550   -0.766309
      7          1           0        4.788013   -0.438999    0.801747
      8          1           0        3.595755    1.627265    0.697356
      9          6           0        3.985050   -1.062734    0.426816
     10          6           0        2.710180    1.117883    0.359168
     11          1           0        4.334253   -1.541638   -0.483309
     12          1           0        3.803986   -1.845850    1.157088
     13          1           0        1.551820    2.911821    0.255388
     14          6           0        2.734681   -0.252958    0.171143
     15          6           0        1.551977    1.845907    0.110319
     16          6           0        1.568849   -0.880477   -0.269279
     17          6           0        0.407545    1.212040   -0.326392
     18          1           0        1.577042   -1.947676   -0.422443
     19          6           0        0.408652   -0.169371   -0.518699
     20          1           0       -0.486720    1.775359   -0.524619
     21          1           0       -1.273279   -0.370347   -1.838432
     22          1           0       -0.610974   -1.889666   -1.286493
     23          6           0       -0.849185   -0.876262   -0.984760
     24          7           0       -1.889443   -0.935493    0.026684
     25          1           0       -1.719446   -1.504208    0.824793
 ---------------------------------------------------------------------
 Rotational constants (GHZ):      2.2108381      0.4514389      0.4167225

 Test job not archived.
 1\1\GINC-LAC-349\FOpt\RHF\6-31G(d)\C10H13N1O1\SONGLIN3\29-Nov-2017\0\\
 #HF/6-31G* SCF=tight Test Pop=MK iop(6/33=2) iop(6/42=6) opt # iop(6/5
 0=1)\\remark line goes here\\0,1\H,-4.81141,0.148895,1.022338\C,-3.818
 967,-0.186006,1.288061\H,-3.865098,-1.199769,1.668799\H,-3.441322,0.45
 966,2.075067\C,-2.919794,-0.057488,0.076357\O,-3.111305,0.77755,-0.766
 309\H,4.788013,-0.438999,0.801747\H,3.595755,1.627265,0.697356\C,3.985
 05,-1.062734,0.426816\C,2.71018,1.117883,0.359168\H,4.334253,-1.541638
 ,-0.483309\H,3.803986,-1.84585,1.157088\H,1.55182,2.911821,0.255388\C,
 2.734681,-0.252958,0.171143\C,1.551977,1.845907,0.110319\C,1.568849,-0
 .880477,-0.269279\C,0.407545,1.21204,-0.326392\H,1.577042,-1.947676,-0
 .422443\C,0.408652,-0.169371,-0.518699\H,-0.48672,1.775359,-0.524619\H
 ,-1.273279,-0.370347,-1.838432\H,-0.610974,-1.889666,-1.286493\C,-0.84
 9185,-0.876262,-0.98476\N,-1.889443,-0.935493,0.026684\H,-1.719446,-1.
 504208,0.824793\\Version=ES64L-G09RevD.01\State=1-A\HF=-515.5917495\RM
 SD=3.890e-09\RMSF=2.564e-06\Dipole=0.5888112,-1.0037531,0.9978508\Quad
 rupole=-0.8134277,2.3911087,-1.5776811,4.3076779,-5.0937722,1.2372706\
 PG=C01 [X(C10H13N1O1)]\\@


 THERE'S SMALL CHOICE IN A BOWL OF ROTTEN APPLES.
                     SHAKESPEARE
 Job cpu time:       0 days  0 hours  0 minutes 33.3 seconds.
 File lengths (MBytes):  RWF=    134 Int=      0 D2E=      0 Chk=      5 Scr=      2
 Normal termination of Gaussian 09 at Wed Nov 29 20:35:11 2017.
