 Entering Gaussian System, Link 0=g09
 Initial command:
 /opt/software/Gaussian/g09/l1.exe "/mnt/ls15/scratch/users/songlin3/Gau-18321.inp" -scrdir="/mnt/ls15/scratch/users/songlin3/"
 Entering Link 1 = /opt/software/Gaussian/g09/l1.exe PID=     18322.
  
 Copyright (c) 1988,1990,1992,1993,1995,1998,2003,2009,2013,
            Gaussian, Inc.  All Rights Reserved.
  
 This is part of the Gaussian(R) 09 program.  It is based on
 the Gaussian(R) 03 system (copyright 2003, Gaussian, Inc.),
 the Gaussian(R) 98 system (copyright 1998, Gaussian, Inc.),
 the Gaussian(R) 94 system (copyright 1995, Gaussian, Inc.),
 the Gaussian 92(TM) system (copyright 1992, Gaussian, Inc.),
 the Gaussian 90(TM) system (copyright 1990, Gaussian, Inc.),
 the Gaussian 88(TM) system (copyright 1988, Gaussian, Inc.),
 the Gaussian 86(TM) system (copyright 1986, Carnegie Mellon
 University), and the Gaussian 82(TM) system (copyright 1983,
 Carnegie Mellon University). Gaussian is a federally registered
 trademark of Gaussian, Inc.
  
 This software contains proprietary and confidential information,
 including trade secrets, belonging to Gaussian, Inc.
  
 This software is provided under written license and may be
 used, copied, transmitted, or stored only in accord with that
 written license.
  
 The following legend is applicable only to US Government
 contracts under FAR:
  
                    RESTRICTED RIGHTS LEGEND
  
 Use, reproduction and disclosure by the US Government is
 subject to restrictions as set forth in subparagraphs (a)
 and (c) of the Commercial Computer Software - Restricted
 Rights clause in FAR 52.227-19.
  
 Gaussian, Inc.
 340 Quinnipiac St., Bldg. 40, Wallingford CT 06492
  
  
 ---------------------------------------------------------------
 Warning -- This program may not be used in any manner that
 competes with the business of Gaussian, Inc. or will provide
 assistance to any competitor of Gaussian, Inc.  The licensee
 of this program is prohibited from giving any competitor of
 Gaussian, Inc. access to this program.  By using this program,
 the user acknowledges that Gaussian, Inc. is engaged in the
 business of creating and licensing software in the field of
 computational chemistry and represents and warrants to the
 licensee that it is not a competitor of Gaussian, Inc. and that
 it will not use this program in any manner prohibited above.
 ---------------------------------------------------------------
  

 Cite this work as:
 Gaussian 09, Revision D.01,
 M. J. Frisch, G. W. Trucks, H. B. Schlegel, G. E. Scuseria, 
 M. A. Robb, J. R. Cheeseman, G. Scalmani, V. Barone, B. Mennucci, 
 G. A. Petersson, H. Nakatsuji, M. Caricato, X. Li, H. P. Hratchian, 
 A. F. Izmaylov, J. Bloino, G. Zheng, J. L. Sonnenberg, M. Hada, 
 M. Ehara, K. Toyota, R. Fukuda, J. Hasegawa, M. Ishida, T. Nakajima, 
 Y. Honda, O. Kitao, H. Nakai, T. Vreven, J. A. Montgomery, Jr., 
 J. E. Peralta, F. Ogliaro, M. Bearpark, J. J. Heyd, E. Brothers, 
 K. N. Kudin, V. N. Staroverov, T. Keith, R. Kobayashi, J. Normand, 
 K. Raghavachari, A. Rendell, J. C. Burant, S. S. Iyengar, J. Tomasi, 
 M. Cossi, N. Rega, J. M. Millam, M. Klene, J. E. Knox, J. B. Cross, 
 V. Bakken, C. Adamo, J. Jaramillo, R. Gomperts, R. E. Stratmann, 
 O. Yazyev, A. J. Austin, R. Cammi, C. Pomelli, J. W. Ochterski, 
 R. L. Martin, K. Morokuma, V. G. Zakrzewski, G. A. Voth, 
 P. Salvador, J. J. Dannenberg, S. Dapprich, A. D. Daniels, 
 O. Farkas, J. B. Foresman, J. V. Ortiz, J. Cioslowski, 
 and D. J. Fox, Gaussian, Inc., Wallingford CT, 2013.
 
 ******************************************
 Gaussian 09:  ES64L-G09RevD.01 24-Apr-2013
                29-Nov-2017 
 ******************************************
 %RWF=myrwf
 %NoSave
 %chk=opt.chk
 %NprocShared=4
 Will use up to    4 processors via shared memory.
 %Mem=16GB
 ------------------------------------------------------------
 #HF/6-31G* SCF=tight Test Pop=MK iop(6/33=2) iop(6/42=6) opt
 ------------------------------------------------------------
 1/18=20,19=15,38=1/1,3;
 2/9=110,12=2,17=6,18=5,40=1/2;
 3/5=1,6=6,7=1,11=9,16=1,25=1,30=1,71=1/1,2,3;
 4//1;
 5/5=2,32=2,38=5/2;
 6/7=2,8=2,9=2,10=2,15=8,20=1,28=1,33=2,42=6/1,2;
 7//1,2,3,16;
 1/18=20,19=15/3(2);
 2/9=110/2;
 99//99;
 2/9=110/2;
 3/5=1,6=6,7=1,11=9,16=1,25=1,30=1,71=1/1,2,3;
 4/5=5,16=3,69=1/1;
 5/5=2,32=2,38=5/2;
 7//1,2,3,16;
 1/18=20,19=15/3(-5);
 2/9=110/2;
 6/7=2,8=2,9=2,10=2,15=8,19=2,20=1,28=1,33=2,42=6/1,2;
 99/9=1/99;
 ---------------------
 remark line goes here
 ---------------------
 Symbolic Z-matrix:
 Charge =  0 Multiplicity = 1
 H                     18.655   -12.9      20.696 
 C                     18.195   -11.953    20.98 
 H                     18.84    -11.129    20.674 
 H                     18.058   -11.925    22.061 
 C                     16.818   -11.779    20.304 
 O                     16.385   -12.658    19.556 
 H                     10.377   -9.671     23.841 
 H                     10.864   -12.204    23.32 
 C                     11.464   -9.605     23.87 
 C                     11.648   -11.821    22.682 
 H                     11.763   -8.564     23.753 
 H                     11.785   -9.941     24.855 
 H                     11.92    -13.699    21.658 
 C                     12.081   -10.487    22.807 
 C                     12.247   -12.671    21.735 
 C                     13.105   -9.998     21.969 
 C                     13.276   -12.187    20.905 
 H                     13.444   -8.978     22.068 
 C                     13.705   -10.848    21.015 
 H                     13.742   -12.846    20.186 
 H                     14.647   -10.719    19.101 
 H                     14.724   -9.245     20.043 
 C                     14.806   -10.33     20.108 
 N                     16.146   -10.655    20.574 
 H                     16.612   -9.954     21.148 
 

 GradGradGradGradGradGradGradGradGradGradGradGradGradGradGradGradGradGrad
 Berny optimization.
 Initialization pass.
                           ----------------------------
                           !    Initial Parameters    !
                           ! (Angstroms and Degrees)  !
 --------------------------                            --------------------------
 ! Name  Definition              Value          Derivative Info.                !
 --------------------------------------------------------------------------------
 ! R1    R(1,2)                  1.0904         estimate D2E/DX2                !
 ! R2    R(2,3)                  1.0902         estimate D2E/DX2                !
 ! R3    R(2,4)                  1.09           estimate D2E/DX2                !
 ! R4    R(2,5)                  1.5438         estimate D2E/DX2                !
 ! R5    R(5,6)                  1.2327         estimate D2E/DX2                !
 ! R6    R(5,24)                 1.3371         estimate D2E/DX2                !
 ! R7    R(7,9)                  1.0894         estimate D2E/DX2                !
 ! R8    R(8,10)                 1.0809         estimate D2E/DX2                !
 ! R9    R(9,11)                 1.0894         estimate D2E/DX2                !
 ! R10   R(9,12)                 1.0891         estimate D2E/DX2                !
 ! R11   R(9,14)                 1.5128         estimate D2E/DX2                !
 ! R12   R(10,14)                1.4081         estimate D2E/DX2                !
 ! R13   R(10,15)                1.4065         estimate D2E/DX2                !
 ! R14   R(13,15)                1.0815         estimate D2E/DX2                !
 ! R15   R(14,16)                1.4107         estimate D2E/DX2                !
 ! R16   R(15,17)                1.4078         estimate D2E/DX2                !
 ! R17   R(16,18)                1.0794         estimate D2E/DX2                !
 ! R18   R(16,19)                1.4116         estimate D2E/DX2                !
 ! R19   R(17,19)                1.4103         estimate D2E/DX2                !
 ! R20   R(17,20)                1.0809         estimate D2E/DX2                !
 ! R21   R(19,23)                1.5176         estimate D2E/DX2                !
 ! R22   R(21,23)                1.0912         estimate D2E/DX2                !
 ! R23   R(22,23)                1.09           estimate D2E/DX2                !
 ! R24   R(23,24)                1.4555         estimate D2E/DX2                !
 ! R25   R(24,25)                1.0188         estimate D2E/DX2                !
 ! A1    A(1,2,3)              109.4937         estimate D2E/DX2                !
 ! A2    A(1,2,4)              109.4888         estimate D2E/DX2                !
 ! A3    A(1,2,5)              111.1065         estimate D2E/DX2                !
 ! A4    A(3,2,4)              109.4689         estimate D2E/DX2                !
 ! A5    A(3,2,5)              108.6387         estimate D2E/DX2                !
 ! A6    A(4,2,5)              108.6179         estimate D2E/DX2                !
 ! A7    A(2,5,6)              119.9091         estimate D2E/DX2                !
 ! A8    A(2,5,24)             117.0389         estimate D2E/DX2                !
 ! A9    A(6,5,24)             123.0519         estimate D2E/DX2                !
 ! A10   A(7,9,11)             109.2019         estimate D2E/DX2                !
 ! A11   A(7,9,12)             107.4261         estimate D2E/DX2                !
 ! A12   A(7,9,14)             110.6666         estimate D2E/DX2                !
 ! A13   A(11,9,12)            108.1221         estimate D2E/DX2                !
 ! A14   A(11,9,14)            111.6982         estimate D2E/DX2                !
 ! A15   A(12,9,14)            109.5982         estimate D2E/DX2                !
 ! A16   A(8,10,14)            120.4198         estimate D2E/DX2                !
 ! A17   A(8,10,15)            119.4843         estimate D2E/DX2                !
 ! A18   A(14,10,15)           120.0907         estimate D2E/DX2                !
 ! A19   A(9,14,10)            119.2953         estimate D2E/DX2                !
 ! A20   A(9,14,16)            120.7557         estimate D2E/DX2                !
 ! A21   A(10,14,16)           119.9273         estimate D2E/DX2                !
 ! A22   A(10,15,13)           119.5793         estimate D2E/DX2                !
 ! A23   A(10,15,17)           120.0319         estimate D2E/DX2                !
 ! A24   A(13,15,17)           120.3848         estimate D2E/DX2                !
 ! A25   A(14,16,18)           120.0704         estimate D2E/DX2                !
 ! A26   A(14,16,19)           120.0852         estimate D2E/DX2                !
 ! A27   A(18,16,19)           119.8351         estimate D2E/DX2                !
 ! A28   A(15,17,19)           120.1819         estimate D2E/DX2                !
 ! A29   A(15,17,20)           119.8456         estimate D2E/DX2                !
 ! A30   A(19,17,20)           119.9714         estimate D2E/DX2                !
 ! A31   A(16,19,17)           119.6772         estimate D2E/DX2                !
 ! A32   A(16,19,23)           120.447          estimate D2E/DX2                !
 ! A33   A(17,19,23)           119.8758         estimate D2E/DX2                !
 ! A34   A(19,23,21)           108.9141         estimate D2E/DX2                !
 ! A35   A(19,23,22)           108.7119         estimate D2E/DX2                !
 ! A36   A(19,23,24)           113.6005         estimate D2E/DX2                !
 ! A37   A(21,23,22)           106.7896         estimate D2E/DX2                !
 ! A38   A(21,23,24)           110.4889         estimate D2E/DX2                !
 ! A39   A(22,23,24)           108.0964         estimate D2E/DX2                !
 ! A40   A(5,24,23)            125.8568         estimate D2E/DX2                !
 ! A41   A(5,24,25)            117.5338         estimate D2E/DX2                !
 ! A42   A(23,24,25)           116.6053         estimate D2E/DX2                !
 ! D1    D(1,2,5,6)              0.0047         estimate D2E/DX2                !
 ! D2    D(1,2,5,24)           179.853          estimate D2E/DX2                !
 ! D3    D(3,2,5,6)            120.515          estimate D2E/DX2                !
 ! D4    D(3,2,5,24)           -59.6367         estimate D2E/DX2                !
 ! D5    D(4,2,5,6)           -120.486          estimate D2E/DX2                !
 ! D6    D(4,2,5,24)            59.3623         estimate D2E/DX2                !
 ! D7    D(2,5,24,23)         -176.1433         estimate D2E/DX2                !
 ! D8    D(2,5,24,25)            4.6184         estimate D2E/DX2                !
 ! D9    D(6,5,24,23)            3.6999         estimate D2E/DX2                !
 ! D10   D(6,5,24,25)         -175.5385         estimate D2E/DX2                !
 ! D11   D(7,9,14,10)          -48.631          estimate D2E/DX2                !
 ! D12   D(7,9,14,16)          133.0639         estimate D2E/DX2                !
 ! D13   D(11,9,14,10)        -170.5297         estimate D2E/DX2                !
 ! D14   D(11,9,14,16)          11.1653         estimate D2E/DX2                !
 ! D15   D(12,9,14,10)          69.6669         estimate D2E/DX2                !
 ! D16   D(12,9,14,16)        -108.6381         estimate D2E/DX2                !
 ! D17   D(8,10,14,9)            1.6779         estimate D2E/DX2                !
 ! D18   D(8,10,14,16)         179.9972         estimate D2E/DX2                !
 ! D19   D(15,10,14,9)        -177.489          estimate D2E/DX2                !
 ! D20   D(15,10,14,16)          0.8303         estimate D2E/DX2                !
 ! D21   D(8,10,15,13)          -0.2514         estimate D2E/DX2                !
 ! D22   D(8,10,15,17)        -179.5261         estimate D2E/DX2                !
 ! D23   D(14,10,15,13)        178.9234         estimate D2E/DX2                !
 ! D24   D(14,10,15,17)         -0.3514         estimate D2E/DX2                !
 ! D25   D(9,14,16,18)          -1.2321         estimate D2E/DX2                !
 ! D26   D(9,14,16,19)         177.6552         estimate D2E/DX2                !
 ! D27   D(10,14,16,18)       -179.5265         estimate D2E/DX2                !
 ! D28   D(10,14,16,19)         -0.6391         estimate D2E/DX2                !
 ! D29   D(10,15,17,19)         -0.3208         estimate D2E/DX2                !
 ! D30   D(10,15,17,20)        179.3025         estimate D2E/DX2                !
 ! D31   D(13,15,17,19)       -179.5897         estimate D2E/DX2                !
 ! D32   D(13,15,17,20)          0.0336         estimate D2E/DX2                !
 ! D33   D(14,16,19,17)         -0.0295         estimate D2E/DX2                !
 ! D34   D(14,16,19,23)        179.9166         estimate D2E/DX2                !
 ! D35   D(18,16,19,17)        178.8605         estimate D2E/DX2                !
 ! D36   D(18,16,19,23)         -1.1934         estimate D2E/DX2                !
 ! D37   D(15,17,19,16)          0.5098         estimate D2E/DX2                !
 ! D38   D(15,17,19,23)       -179.4366         estimate D2E/DX2                !
 ! D39   D(20,17,19,16)       -179.113          estimate D2E/DX2                !
 ! D40   D(20,17,19,23)          0.9406         estimate D2E/DX2                !
 ! D41   D(16,19,23,21)       -138.644          estimate D2E/DX2                !
 ! D42   D(16,19,23,22)        -22.6392         estimate D2E/DX2                !
 ! D43   D(16,19,23,24)         97.7498         estimate D2E/DX2                !
 ! D44   D(17,19,23,21)         41.302          estimate D2E/DX2                !
 ! D45   D(17,19,23,22)        157.3068         estimate D2E/DX2                !
 ! D46   D(17,19,23,24)        -82.3042         estimate D2E/DX2                !
 ! D47   D(19,23,24,5)          87.2103         estimate D2E/DX2                !
 ! D48   D(19,23,24,25)        -93.5451         estimate D2E/DX2                !
 ! D49   D(21,23,24,5)         -35.5333         estimate D2E/DX2                !
 ! D50   D(21,23,24,25)        143.7113         estimate D2E/DX2                !
 ! D51   D(22,23,24,5)        -152.0539         estimate D2E/DX2                !
 ! D52   D(22,23,24,25)         27.1908         estimate D2E/DX2                !
 --------------------------------------------------------------------------------
 Trust Radius=3.00D-01 FncErr=1.00D-07 GrdErr=1.00D-07
 Number of steps in this run=    129 maximum allowed number of steps=    150.
 GradGradGradGradGradGradGradGradGradGradGradGradGradGradGradGradGradGrad

                          Input orientation:                          
 ---------------------------------------------------------------------
 Center     Atomic      Atomic             Coordinates (Angstroms)
 Number     Number       Type             X           Y           Z
 ---------------------------------------------------------------------
      1          1           0       18.655000  -12.900000   20.696000
      2          6           0       18.195000  -11.953000   20.980000
      3          1           0       18.840000  -11.129000   20.674000
      4          1           0       18.058000  -11.925000   22.061000
      5          6           0       16.818000  -11.779000   20.304000
      6          8           0       16.385000  -12.658000   19.556000
      7          1           0       10.377000   -9.671000   23.841000
      8          1           0       10.864000  -12.204000   23.320000
      9          6           0       11.464000   -9.605000   23.870000
     10          6           0       11.648000  -11.821000   22.682000
     11          1           0       11.763000   -8.564000   23.753000
     12          1           0       11.785000   -9.941000   24.855000
     13          1           0       11.920000  -13.699000   21.658000
     14          6           0       12.081000  -10.487000   22.807000
     15          6           0       12.247000  -12.671000   21.735000
     16          6           0       13.105000   -9.998000   21.969000
     17          6           0       13.276000  -12.187000   20.905000
     18          1           0       13.444000   -8.978000   22.068000
     19          6           0       13.705000  -10.848000   21.015000
     20          1           0       13.742000  -12.846000   20.186000
     21          1           0       14.647000  -10.719000   19.101000
     22          1           0       14.724000   -9.245000   20.043000
     23          6           0       14.806000  -10.330000   20.108000
     24          7           0       16.146000  -10.655000   20.574000
     25          1           0       16.612000   -9.954000   21.148000
 ---------------------------------------------------------------------
                    Distance matrix (angstroms):
                    1          2          3          4          5
     1  H    0.000000
     2  C    1.090443   0.000000
     3  H    1.780772   1.090246   0.000000
     4  H    1.780522   1.090006   1.780143   0.000000
     5  C    2.187435   1.543820   2.155895   2.155450   0.000000
     6  O    2.551679   2.408506   3.100772   3.100200   1.232734
     7  H    9.425643   8.632147   9.153033   8.200407   7.644640
     8  H    8.250423   7.699491   8.471925   7.308663   6.687825
     9  C    8.523015   7.692306   8.181832   7.220507   6.790283
    10  C    7.362505   6.765903   7.499053   6.440851   5.690830
    11  H    8.697460   7.781097   8.132859   7.333908   6.912659
    12  H    8.558613   7.755764   8.286443   7.147952   7.030002
    13  H    6.850115   6.548574   7.447117   6.401916   5.432322
    14  C    7.314121   6.547372   7.116596   6.192648   5.511211
    15  C    6.495724   6.038564   6.853549   5.867752   4.872111
    16  C    6.390981   5.541502   5.987187   5.315449   4.441909
    17  C    5.430073   4.925134   5.668406   4.926713   3.615720
    18  H    6.664757   5.710199   5.973847   5.474838   4.726645
    19  C    5.367957   4.624105   5.153976   4.604634   3.326117
    20  H    4.939695   4.610542   5.401466   4.794968   3.257942
    21  H    4.833720   4.200202   4.497074   4.674501   2.698898
    22  H    5.407235   4.501008   4.570457   4.729723   3.297592
    23  C    4.665345   3.857439   4.151134   4.115062   2.487199
    24  N    3.368975   2.459277   2.737209   2.734925   1.337109
    25  H    3.613457   2.555409   2.563062   2.609469   2.021237
                    6          7          8          9         10
     6  O    0.000000
     7  H    7.961122   0.000000
     8  H    6.697406   2.631482   0.000000
     9  C    7.221333   1.089388   2.723472   0.000000
    10  C    5.736864   2.753402   1.080920   2.521082   0.000000
    11  H    7.465824   1.776004   3.774293   1.089390   3.430498
    12  H    7.524725   1.756007   2.885418   1.089111   2.876647
    13  H    5.043641   4.834369   2.472328   4.675651   2.156257
    14  C    5.814349   2.153747   2.166183   1.512806   1.408073
    15  C    4.676671   4.114868   2.154763   3.817286   1.406453
    16  C    4.863802   3.324650   3.422531   2.541875   2.440194
    17  C    3.421626   4.832655   3.413247   4.329122   2.437636
    18  H    5.338729   3.609746   4.316362   2.749679   3.418371
    19  C    3.547842   4.521857   3.901672   3.836425   2.820792
    20  H    2.723544   5.896005   4.303139   5.409734   3.415476
    21  H    2.643367   6.465199   5.858009   5.840877   4.799163
    22  H    3.826834   5.788151   5.864641   5.040152   4.802278
    23  C    2.866623   5.829718   5.419242   5.084017   4.338378
    24  N    2.259525   6.702455   6.151377   5.821275   5.102472
    25  H    3.146047   6.797615   6.543668   5.833780   5.520882
                   11         12         13         14         15
    11  H    0.000000
    12  H    1.763808   0.000000
    13  H    5.548144   4.935747   0.000000
    14  C    2.166557   2.140102   3.415123   0.000000
    15  C    4.601525   4.171420   1.081500   2.438564   0.000000
    16  C    2.653295   3.174058   3.898506   1.410653   2.817064
    17  C    4.850402   4.782269   2.166077   2.817025   1.407834
    18  H    2.415861   3.383344   4.977802   2.163555   3.896402
    19  C    4.060131   4.388012   3.424599   2.445191   2.442845
    20  H    5.914005   5.836817   2.492805   3.897877   2.159873
    21  H    5.882396   6.473395   4.780709   4.513603   4.063036
    22  H    4.795350   5.681327   5.505339   4.020909   4.553665
    23  C    5.066027   5.640192   4.699112   3.838603   3.830913
    24  N    5.804224   6.152648   5.319781   4.640985   4.540306
    25  H    5.677229   6.086210   6.024947   4.854517   5.174928
                   16         17         18         19         20
    16  C    0.000000
    17  C    2.439889   0.000000
    18  H    1.079408   3.417378   0.000000
    19  C    1.411601   1.410341   2.161904   0.000000
    20  H    3.419936   1.080925   4.311862   2.163473   0.000000
    21  H    3.335121   2.699830   3.644363   2.137148   2.553503
    22  H    2.626337   3.390444   2.410459   2.133718   3.735234
    23  C    2.543019   2.534671   2.743091   1.517621   2.732844
    24  N    3.409597   3.270089   3.513569   2.488013   3.275705
    25  H    3.602086   4.021720   3.440233   3.044269   4.186408
                   21         22         23         24         25
    21  H    0.000000
    22  H    1.750991   0.000000
    23  C    1.091170   1.090034   0.000000
    24  N    2.102576   2.071749   1.455466   0.000000
    25  H    2.938819   2.299620   2.117690   1.018839   0.000000
 Stoichiometry    C10H13NO
 Framework group  C1[X(C10H13NO)]
 Deg. of freedom    69
 Full point group                 C1      NOp   1
 Largest Abelian subgroup         C1      NOp   1
 Largest concise Abelian subgroup C1      NOp   1
                         Standard orientation:                         
 ---------------------------------------------------------------------
 Center     Atomic      Atomic             Coordinates (Angstroms)
 Number     Number       Type             X           Y           Z
 ---------------------------------------------------------------------
      1          1           0       -4.494860    0.240687    1.571652
      2          6           0       -3.791116   -0.538839    1.278142
      3          1           0       -4.340623   -1.403160    0.904473
      4          1           0       -3.193937   -0.833346    2.141135
      5          6           0       -2.840876   -0.040680    0.168069
      6          8           0       -2.947819    1.109596   -0.262122
      7          1           0        4.763637   -0.822874    0.160333
      8          1           0        3.640128    1.439565    0.897761
      9          6           0        3.831012   -1.251558    0.525308
     10          6           0        2.742056    1.021420    0.465314
     11          1           0        3.708717   -2.250693    0.108721
     12          1           0        3.915754   -1.343663    1.607204
     13          1           0        1.709463    2.914170    0.438985
     14          6           0        2.661312   -0.355572    0.182393
     15          6           0        1.644694    1.860887    0.202253
     16          6           0        1.484199   -0.890264   -0.381920
     17          6           0        0.465742    1.326689   -0.351554
     18          1           0        1.416976   -1.946764   -0.592659
     19          6           0        0.382903   -0.049090   -0.650604
     20          1           0       -0.379816    1.972563   -0.542018
     21          1           0       -1.257570    0.079850   -2.014284
     22          1           0       -0.642681   -1.542488   -1.777855
     23          6           0       -0.886768   -0.615274   -1.259328
     24          7           0       -1.923844   -0.904507   -0.279941
     25          1           0       -1.954681   -1.855369    0.084673
 ---------------------------------------------------------------------
 Rotational constants (GHZ):      1.9864495      0.4653561      0.4250600
 Standard basis: 6-31G(d) (6D, 7F)
 There are   206 symmetry adapted cartesian basis functions of A   symmetry.
 There are   206 symmetry adapted basis functions of A   symmetry.
   206 basis functions,   388 primitive gaussians,   206 cartesian basis functions
    44 alpha electrons       44 beta electrons
       nuclear repulsion energy       658.4944513166 Hartrees.
 NAtoms=   25 NActive=   25 NUniq=   25 SFac= 1.00D+00 NAtFMM=   60 NAOKFM=F Big=F
 Integral buffers will be    131072 words long.
 Raffenetti 1 integral format.
 Two-electron integral symmetry is turned on.
 One-electron integrals computed using PRISM.
 NBasis=   206 RedAO= T EigKep=  4.74D-04  NBF=   206
 NBsUse=   206 1.00D-06 EigRej= -1.00D+00 NBFU=   206
 ExpMin= 1.61D-01 ExpMax= 5.48D+03 ExpMxC= 8.25D+02 IAcc=1 IRadAn=         1 AccDes= 0.00D+00
 Harris functional with IExCor=  205 and IRadAn=       1 diagonalized for initial guess.
 HarFok:  IExCor=  205 AccDes= 0.00D+00 IRadAn=         1 IDoV= 1 UseB2=F ITyADJ=14
 ICtDFT=  3500011 ScaDFX=  1.000000  1.000000  1.000000  1.000000
 FoFCou: FMM=F IPFlag=           0 FMFlag=      100000 FMFlg1=           0
         NFxFlg=           0 DoJE=T BraDBF=F KetDBF=T FulRan=T
         wScrn=  0.000000 ICntrl=     500 IOpCl=  0 I1Cent=   200000004 NGrid=           0
         NMat0=    1 NMatS0=      1 NMatT0=    0 NMatD0=    1 NMtDS0=    0 NMtDT0=    0
 Petite list used in FoFCou.
 Keep R1 ints in memory in canonical form, NReq=231886609.
 Requested convergence on RMS density matrix=1.00D-08 within 128 cycles.
 Requested convergence on MAX density matrix=1.00D-06.
 Requested convergence on             energy=1.00D-06.
 No special actions if energy rises.
 SCF Done:  E(RHF) =  -515.582473451     A.U. after   15 cycles
            NFock= 15  Conv=0.49D-08     -V/T= 2.0024

 **********************************************************************

            Population analysis using the SCF density.

 **********************************************************************

 Orbital symmetries:
 BldTbl:  Degeneracy threshold= 1.00D-02
       Occupied  (A) (A) (A) (A) (A) (A) (A) (A) (A) (A) (A) (A)
                 (A) (A) (A) (A) (A) (A) (A) (A) (A) (A) (A) (A)
                 (A) (A) (A) (A) (A) (A) (A) (A) (A) (A) (A) (A)
                 (A) (A) (A) (A) (A) (A) (A) (A)
       Virtual   (A) (A) (A) (A) (A) (A) (A) (A) (A) (A) (A) (A)
                 (A) (A) (A) (A) (A) (A) (A) (A) (A) (A) (A) (A)
                 (A) (A) (A) (A) (A) (A) (A) (A) (A) (A) (A) (A)
                 (A) (A) (A) (A) (A) (A) (A) (A) (A) (A) (A) (A)
                 (A) (A) (A) (A) (A) (A) (A) (A) (A) (A) (A) (A)
                 (A) (A) (A) (A) (A) (A) (A) (A) (A) (A) (A) (A)
                 (A) (A) (A) (A) (A) (A) (A) (A) (A) (A) (A) (A)
                 (A) (A) (A) (A) (A) (A) (A) (A) (A) (A) (A) (A)
                 (A) (A) (A) (A) (A) (A) (A) (A) (A) (A) (A) (A)
                 (A) (A) (A) (A) (A) (A) (A) (A) (A) (A) (A) (A)
                 (A) (A) (A) (A) (A) (A) (A) (A) (A) (A) (A) (A)
                 (A) (A) (A) (A) (A) (A) (A) (A) (A) (A) (A) (A)
                 (A) (A) (A) (A) (A) (A) (A) (A) (A) (A) (A) (A)
                 (A) (A) (A) (A) (A) (A)
 The electronic state is 1-A.
 Alpha  occ. eigenvalues --  -20.51181 -15.59189 -11.34761 -11.27267 -11.24262
 Alpha  occ. eigenvalues --  -11.23948 -11.23590 -11.23297 -11.23152 -11.22812
 Alpha  occ. eigenvalues --  -11.22391 -11.22318  -1.36370  -1.23270  -1.14133
 Alpha  occ. eigenvalues --   -1.05091  -1.02327  -0.99383  -0.93280  -0.92001
 Alpha  occ. eigenvalues --   -0.81621  -0.78887  -0.77253  -0.68766  -0.67885
 Alpha  occ. eigenvalues --   -0.64707  -0.63556  -0.63114  -0.60743  -0.57912
 Alpha  occ. eigenvalues --   -0.57432  -0.56581  -0.55965  -0.55557  -0.55093
 Alpha  occ. eigenvalues --   -0.52608  -0.51316  -0.48174  -0.47619  -0.47302
 Alpha  occ. eigenvalues --   -0.40767  -0.38468  -0.32429  -0.31180
 Alpha virt. eigenvalues --    0.13765   0.14665   0.20549   0.21009   0.24482
 Alpha virt. eigenvalues --    0.26245   0.27166   0.28427   0.29312   0.30007
 Alpha virt. eigenvalues --    0.31680   0.31907   0.33194   0.33300   0.34840
 Alpha virt. eigenvalues --    0.35718   0.37307   0.39513   0.41234   0.42666
 Alpha virt. eigenvalues --    0.44564   0.49042   0.49815   0.51119   0.53861
 Alpha virt. eigenvalues --    0.56288   0.58812   0.61694   0.71438   0.72569
 Alpha virt. eigenvalues --    0.73213   0.74809   0.75563   0.76292   0.77941
 Alpha virt. eigenvalues --    0.78220   0.78984   0.80957   0.82257   0.82982
 Alpha virt. eigenvalues --    0.84182   0.84635   0.85609   0.88329   0.89446
 Alpha virt. eigenvalues --    0.90419   0.93633   0.94537   0.94974   0.98865
 Alpha virt. eigenvalues --    0.99522   1.00528   1.02081   1.02885   1.08911
 Alpha virt. eigenvalues --    1.09601   1.10317   1.11922   1.12341   1.14072
 Alpha virt. eigenvalues --    1.14560   1.15508   1.16160   1.17138   1.17819
 Alpha virt. eigenvalues --    1.18546   1.19347   1.21153   1.21831   1.22098
 Alpha virt. eigenvalues --    1.23806   1.25059   1.27965   1.32822   1.35878
 Alpha virt. eigenvalues --    1.36898   1.38907   1.41253   1.43564   1.45392
 Alpha virt. eigenvalues --    1.50758   1.51982   1.57421   1.59188   1.61231
 Alpha virt. eigenvalues --    1.62803   1.64644   1.65616   1.70458   1.72820
 Alpha virt. eigenvalues --    1.74762   1.75437   1.77593   1.78621   1.82342
 Alpha virt. eigenvalues --    1.86959   1.94296   2.00501   2.06314   2.09085
 Alpha virt. eigenvalues --    2.10533   2.12853   2.13098   2.14716   2.16886
 Alpha virt. eigenvalues --    2.19021   2.19896   2.20725   2.22248   2.24605
 Alpha virt. eigenvalues --    2.27841   2.29124   2.32231   2.36518   2.37552
 Alpha virt. eigenvalues --    2.37704   2.42249   2.46379   2.47581   2.49956
 Alpha virt. eigenvalues --    2.50686   2.52526   2.54239   2.59446   2.61266
 Alpha virt. eigenvalues --    2.63242   2.64938   2.67575   2.68092   2.69901
 Alpha virt. eigenvalues --    2.71837   2.73818   2.79495   2.80944   2.90066
 Alpha virt. eigenvalues --    2.94565   2.96329   2.98649   3.03886   3.06735
 Alpha virt. eigenvalues --    3.11045   3.11420   3.16491   3.17032   3.23547
 Alpha virt. eigenvalues --    3.27428   3.34630   3.44615   3.53822   3.76598
 Alpha virt. eigenvalues --    4.39969   4.46716   4.52037   4.54823   4.58208
 Alpha virt. eigenvalues --    4.62965   4.66847   4.76479   4.79521   4.86341
 Alpha virt. eigenvalues --    4.91104   5.15514
          Condensed to atoms (all electrons):
               1          2          3          4          5          6
     1  H    0.454088   0.385314  -0.018871  -0.018540  -0.029107   0.003727
     2  C    0.385314   5.257560   0.371718   0.373835   0.372996  -0.069370
     3  H   -0.018871   0.371718   0.521530  -0.024611  -0.034067   0.001319
     4  H   -0.018540   0.373835  -0.024611   0.513035  -0.034540   0.001177
     5  C   -0.029107   0.372996  -0.034067  -0.034540   4.178907   0.593156
     6  O    0.003727  -0.069370   0.001319   0.001177   0.593156   8.193671
     7  H    0.000000   0.000000   0.000000   0.000000   0.000000   0.000000
     8  H    0.000000   0.000000   0.000000   0.000000   0.000000   0.000000
     9  C    0.000000   0.000000   0.000000   0.000000   0.000000   0.000000
    10  C    0.000000   0.000000   0.000000   0.000000  -0.000002   0.000000
    11  H    0.000000   0.000000   0.000000   0.000000   0.000000   0.000000
    12  H    0.000000   0.000000   0.000000   0.000000   0.000000   0.000000
    13  H    0.000000   0.000000   0.000000   0.000000   0.000001  -0.000003
    14  C    0.000000   0.000000   0.000000   0.000000  -0.000005   0.000000
    15  C    0.000000   0.000001   0.000000   0.000000   0.000027   0.000098
    16  C    0.000000  -0.000013   0.000000   0.000003  -0.000056  -0.000032
    17  C    0.000001   0.000017  -0.000001  -0.000001   0.002530  -0.001170
    18  H    0.000000   0.000000   0.000000   0.000000   0.000005   0.000000
    19  C    0.000004  -0.000326   0.000002   0.000064  -0.003361  -0.003189
    20  H   -0.000001   0.000112  -0.000001  -0.000010   0.000019   0.007514
    21  H    0.000001   0.000125  -0.000012  -0.000002   0.000012   0.003555
    22  H    0.000001  -0.000014  -0.000005  -0.000004   0.003140   0.000304
    23  C   -0.000064   0.003839  -0.000155  -0.000198  -0.016921   0.008616
    24  N    0.003515  -0.118454   0.003724   0.003801   0.239992  -0.102882
    25  H   -0.000003  -0.000392   0.000674   0.000381  -0.020854   0.002452
               7          8          9         10         11         12
     1  H    0.000000   0.000000   0.000000   0.000000   0.000000   0.000000
     2  C    0.000000   0.000000   0.000000   0.000000   0.000000   0.000000
     3  H    0.000000   0.000000   0.000000   0.000000   0.000000   0.000000
     4  H    0.000000   0.000000   0.000000   0.000000   0.000000   0.000000
     5  C    0.000000   0.000000   0.000000  -0.000002   0.000000   0.000000
     6  O    0.000000   0.000000   0.000000   0.000000   0.000000   0.000000
     7  H    0.524716   0.001246   0.392351  -0.003249  -0.023496  -0.030016
     8  H    0.001246   0.479858  -0.001650   0.383472  -0.000005   0.000604
     9  C    0.392351  -0.001650   5.098616  -0.054183   0.396332   0.388843
    10  C   -0.003249   0.383472  -0.054183   4.940345   0.003223  -0.003643
    11  H   -0.023496  -0.000005   0.396332   0.003223   0.521579  -0.025875
    12  H   -0.030016   0.000604   0.388843  -0.003643  -0.025875   0.530965
    13  H   -0.000001  -0.001174  -0.000109  -0.030568   0.000002   0.000001
    14  C   -0.039487  -0.034445   0.325667   0.562221  -0.042264  -0.038945
    15  C    0.000065  -0.029776   0.002489   0.541030  -0.000047  -0.000043
    16  C    0.001393   0.002471  -0.040872  -0.039949  -0.002052  -0.000654
    17  C    0.000005   0.002348   0.000263  -0.047533  -0.000008   0.000029
    18  H    0.000002  -0.000107  -0.002537   0.002662   0.002526   0.000070
    19  C   -0.000069   0.000171   0.003105  -0.030359   0.000220  -0.000087
    20  H    0.000000  -0.000093   0.000005   0.002140   0.000000   0.000000
    21  H    0.000000   0.000000   0.000002  -0.000006   0.000000   0.000000
    22  H    0.000000   0.000000  -0.000006  -0.000011  -0.000001   0.000000
    23  C    0.000002   0.000006  -0.000113   0.000287  -0.000004   0.000001
    24  N    0.000000   0.000000   0.000001   0.000010   0.000000   0.000000
    25  H    0.000000   0.000000   0.000000  -0.000001   0.000000   0.000000
              13         14         15         16         17         18
     1  H    0.000000   0.000000   0.000000   0.000000   0.000001   0.000000
     2  C    0.000000   0.000000   0.000001  -0.000013   0.000017   0.000000
     3  H    0.000000   0.000000   0.000000   0.000000  -0.000001   0.000000
     4  H    0.000000   0.000000   0.000000   0.000003  -0.000001   0.000000
     5  C    0.000001  -0.000005   0.000027  -0.000056   0.002530   0.000005
     6  O   -0.000003   0.000000   0.000098  -0.000032  -0.001170   0.000000
     7  H   -0.000001  -0.039487   0.000065   0.001393   0.000005   0.000002
     8  H   -0.001174  -0.034445  -0.029776   0.002471   0.002348  -0.000107
     9  C   -0.000109   0.325667   0.002489  -0.040872   0.000263  -0.002537
    10  C   -0.030568   0.562221   0.541030  -0.039949  -0.047533   0.002662
    11  H    0.000002  -0.042264  -0.000047  -0.002052  -0.000008   0.002526
    12  H    0.000001  -0.038945  -0.000043  -0.000654   0.000029   0.000070
    13  H    0.471391   0.001931   0.380454   0.000352  -0.027236   0.000010
    14  C    0.001931   4.791651  -0.038224   0.569639  -0.031300  -0.028666
    15  C    0.380454  -0.038224   4.903537  -0.035018   0.533582   0.000031
    16  C    0.000352   0.569639  -0.035018   4.951795  -0.042984   0.378069
    17  C   -0.027236  -0.031300   0.533582  -0.042984   4.951252   0.002676
    18  H    0.000010  -0.028666   0.000031   0.378069   0.002676   0.490460
    19  C    0.002032  -0.043198  -0.041579   0.548831   0.558701  -0.034391
    20  H   -0.000952   0.000189  -0.026517   0.002116   0.374745  -0.000098
    21  H   -0.000001  -0.000037   0.000053   0.002372  -0.002606   0.000021
    22  H    0.000002   0.000151  -0.000052  -0.001661   0.003053   0.002430
    23  C   -0.000106   0.002432   0.002384  -0.038706  -0.041825  -0.002415
    24  N    0.000002   0.000042  -0.000054   0.000261  -0.002330   0.000175
    25  H    0.000000   0.000003   0.000000   0.000609   0.000006   0.000032
              19         20         21         22         23         24
     1  H    0.000004  -0.000001   0.000001   0.000001  -0.000064   0.003515
     2  C   -0.000326   0.000112   0.000125  -0.000014   0.003839  -0.118454
     3  H    0.000002  -0.000001  -0.000012  -0.000005  -0.000155   0.003724
     4  H    0.000064  -0.000010  -0.000002  -0.000004  -0.000198   0.003801
     5  C   -0.003361   0.000019   0.000012   0.003140  -0.016921   0.239992
     6  O   -0.003189   0.007514   0.003555   0.000304   0.008616  -0.102882
     7  H   -0.000069   0.000000   0.000000   0.000000   0.000002   0.000000
     8  H    0.000171  -0.000093   0.000000   0.000000   0.000006   0.000000
     9  C    0.003105   0.000005   0.000002  -0.000006  -0.000113   0.000001
    10  C   -0.030359   0.002140  -0.000006  -0.000011   0.000287   0.000010
    11  H    0.000220   0.000000   0.000000  -0.000001  -0.000004   0.000000
    12  H   -0.000087   0.000000   0.000000   0.000000   0.000001   0.000000
    13  H    0.002032  -0.000952  -0.000001   0.000002  -0.000106   0.000002
    14  C   -0.043198   0.000189  -0.000037   0.000151   0.002432   0.000042
    15  C   -0.041579  -0.026517   0.000053  -0.000052   0.002384  -0.000054
    16  C    0.548831   0.002116   0.002372  -0.001661  -0.038706   0.000261
    17  C    0.558701   0.374745  -0.002606   0.003053  -0.041825  -0.002330
    18  H   -0.034391  -0.000098   0.000021   0.002430  -0.002415   0.000175
    19  C    4.876356  -0.027592  -0.045238  -0.057125   0.333390  -0.074822
    20  H   -0.027592   0.423941   0.000867  -0.000015  -0.000812  -0.000799
    21  H   -0.045238   0.000867   0.466480  -0.022530   0.409953  -0.038235
    22  H   -0.057125  -0.000015  -0.022530   0.518519   0.416142  -0.042077
    23  C    0.333390  -0.000812   0.409953   0.416142   4.924580   0.180889
    24  N   -0.074822  -0.000799  -0.038235  -0.042077   0.180889   7.396857
    25  H    0.001914  -0.000016   0.002512  -0.003774  -0.023212   0.323106
              25
     1  H   -0.000003
     2  C   -0.000392
     3  H    0.000674
     4  H    0.000381
     5  C   -0.020854
     6  O    0.002452
     7  H    0.000000
     8  H    0.000000
     9  C    0.000000
    10  C   -0.000001
    11  H    0.000000
    12  H    0.000000
    13  H    0.000000
    14  C    0.000003
    15  C    0.000000
    16  C    0.000609
    17  C    0.000006
    18  H    0.000032
    19  C    0.001914
    20  H   -0.000016
    21  H    0.002512
    22  H   -0.003774
    23  C   -0.023212
    24  N    0.323106
    25  H    0.333669
 Mulliken charges:
               1
     1  H    0.219935
     2  C   -0.576948
     3  H    0.178755
     4  H    0.185610
     5  C    0.748128
     6  O   -0.638944
     7  H    0.176539
     8  H    0.197074
     9  C   -0.508203
    10  C   -0.225885
    11  H    0.169869
    12  H    0.178748
    13  H    0.203970
    14  C    0.042644
    15  C   -0.192442
    16  C   -0.255913
    17  C   -0.232214
    18  H    0.189044
    19  C    0.036545
    20  H    0.245260
    21  H    0.222717
    22  H    0.183532
    23  C   -0.157990
    24  N   -0.772723
    25  H    0.382893
 Sum of Mulliken charges =   0.00000
 Mulliken charges with hydrogens summed into heavy atoms:
               1
     2  C    0.007352
     5  C    0.748128
     6  O   -0.638944
     9  C    0.016952
    10  C   -0.028811
    14  C    0.042644
    15  C    0.011529
    16  C   -0.066869
    17  C    0.013046
    19  C    0.036545
    23  C    0.248259
    24  N   -0.389830
 DipInt: DoE/N= T F RetVal/Mat= T F Init=T NMatP=  1 IDeriv=0 Min/MaxMlt=  0  4
 Entering OneElI...
 OneElI was handed  2147372196 working-precision words.
 Multipole integrals L=0 to 4 MinM= 0 MaxM= 0.
 Requested accuracy = 0.1000D-12
 ShPair: Thresh= 1.00D-13 NBox=     0 BxSize= 0.00D+00 RnKept= 1.78D+01
         NSMCal=                 2775 NSMKep=                2425
 PrsmSu:  NPrtUS=   1 ThrOK=F IAlg=1 NPAlg=1 LenDen=           0.
 Prism:   IPart=     0 DynPar=F LinDyn=F Incr=          24.
 PRISM was handed  2147162555 working-precision words and  2425 shell-pairs
 IPart=  0 NShTot=        2425 NBatch=          46 AvBLen=        52.7
 PrSmSu:  NxtVal=             25.
 Electronic moments (au):
        -88.00000000          0.42845162         -1.52236157          0.41461303
      -2078.48695721       -430.54818361       -223.30553469          7.56356291
         -1.49478592          1.34888541        281.61129827       -321.29255888
        -33.89624100       -592.32890764        909.84005290      -1771.10572945
        370.38796776        146.52549344        -38.45369325       -128.65337479
     -88217.79415706      -5108.93292945      -1999.44747381       4988.33260211
       2908.09467614       -337.60821567       -113.65106414        672.91580131
         49.51095512      -9495.70260250      -6054.64632177       -874.07747258
       1952.77669093       -611.66751682       -366.41522640
 Electronic spatial extent (au):  <R**2>=           2732.3407
 DipInt: DoE/N= F T RetVal/Mat= T F Init=T NMatP=  1 IDeriv=0 Min/MaxMlt=  0  4
 Nuclear    moments (au):
         88.00000000          0.00000000          0.00000000          0.00000000
       2025.74166097        380.20315389        169.63821552          0.00000000
          0.00000000          0.00000000       -281.84803534        313.63165531
         32.61677995        596.47824516       -949.50939987       1807.72565470
       -390.13323510       -149.46591887         40.73927838        131.50411294
      81002.00288681       3711.02151546       1212.10191343      -4756.55316763
      -2991.26236788        409.49355043        142.80578565       -658.18837172
        -53.99289257       7979.30749783       4684.25196922        477.36812562
      -1907.15642072        618.49698372        349.11413227
 Total      moments (au):
          0.00000000          0.42845162         -1.52236157          0.41461303
        -52.74529625        -50.34502972        -53.66731918          7.56356291
         -1.49478592          1.34888541         -0.23673707         -7.66090358
         -1.27946104          4.14933753        -39.66934696         36.61992526
        -19.74526734         -2.94042543          2.28558513          2.85073816
      -7215.79127025      -1397.91141399       -787.34556037        231.77943448
        -83.16769174         71.88533475         29.15472151         14.72742958
         -4.48193745      -1516.39510467      -1370.39435255       -396.70934696
         45.62027021          6.82946689        -17.30109413
 Traceless Quadrup. (au):
         -0.49274786          1.90751866         -1.41477080          7.56356291
         -1.49478592          1.34888541
 Charge=              0.0000 electrons
 Dipole moment (field-independent basis, Debye):
    X=              1.0890    Y=             -3.8695    Z=              1.0538  Tot=              4.1556
 Quadrupole moment (field-independent basis, Debye-Ang):
   XX=            -70.9442   YY=            -67.7158   ZZ=            -72.1844
   XY=             10.1733   XZ=             -2.0105   YZ=              1.8143
 Traceless Quadrupole moment (field-independent basis, Debye-Ang):
   XX=             -0.6628   YY=              2.5657   ZZ=             -1.9029
   XY=             10.1733   XZ=             -2.0105   YZ=              1.8143
 Octapole moment (field-independent basis, Debye-Ang**2):
  XXX=             -0.1685  YYY=             -5.4527  ZZZ=             -0.9107  XYY=              2.9533
  XXY=            -28.2351  XXZ=             26.0647  XZZ=            -14.0539  YZZ=             -2.0929
  YYZ=              1.6268  XYZ=              2.0290
 Hexadecapole moment (field-independent basis, Debye-Ang**3):
 XXXX=          -2717.8128 YYYY=           -526.5204 ZZZZ=           -296.5521 XXXY=             87.2992
 XXXZ=            -31.3249 YYYX=             27.0755 YYYZ=             10.9811 ZZZX=              5.5471
 ZZZY=             -1.6881 XXYY=           -571.1471 XXZZ=           -516.1562 YYZZ=           -149.4198
 XXYZ=             17.1828 YYXZ=              2.5723 ZZXY=             -6.5164
 N-N= 6.584944513166D+02 E-N=-2.520937342479D+03  KE= 5.143626117273D+02
 Entering OneElI...
 OneElI was handed  2147392686 working-precision words.
 Calculate electrostatic properties
    NBasis =   206  MinDer = 0  MaxDer = 0
    NGrid  =    25  NMatD  =   1
 Requested accuracy = 0.1000D-12
 PrtBox:  NBox=     1 Levels=  1 BoxLen=   29.89 SMaxX=       17.50
          Shift=            8.494055            4.253194            3.806445
 Box      1 Number                   0 centers from      1 to     74:
 ShPair: Thresh= 1.00D-13 NBox=     1 BxSize= 2.99D+01 RnKept= 1.64D+01
         NSMCal=                 2775 NSMKep=                2223
 PrsmSu:  NPrtUS=   4 ThrOK=T IAlg=1 NPAlg=1 LenDen=           0.
 Prism:   IPart=     0 DynPar=F LinDyn=F Incr=         138.
 PRISM was handed   536748032 working-precision words and  2223 shell-pairs
 PRISM was handed   536748032 working-precision words and  2223 shell-pairs
 PRISM was handed   536748032 working-precision words and  2223 shell-pairs
 PRISM was handed   536748032 working-precision words and  2223 shell-pairs
 IPart=  3 NShTot=       13525 NBatch=         541 AvBLen=        25.0
 IPart=  2 NShTot=       13725 NBatch=         549 AvBLen=        25.0
 IPart=  1 NShTot=       14050 NBatch=         562 AvBLen=        25.0
 IPart=  0 NShTot=       14275 NBatch=         571 AvBLen=        25.0
 PrSmSu:  NxtVal=            553.
 --------------------------------------------------------
       Center         ----      EFG at Nuclei      ----
                      3XX-RR        3YY-RR        3ZZ-RR
 --------------------------------------------------------
     1   Atom       -0.037612     -0.079812      0.117424
     2   Atom       -0.012259      0.047463     -0.035204
     3   Atom        0.036552     -0.135089      0.098537
     4   Atom        0.012822      0.123018     -0.135840
     5   Atom       -0.103219      0.214283     -0.111064
     6   Atom        0.684932     -0.903803      0.218871
     7   Atom       -0.185297      0.078993      0.106303
     8   Atom       -0.173004      0.078761      0.094244
     9   Atom       -0.013941     -0.008549      0.022490
    10   Atom        0.079149      0.151029     -0.230178
    11   Atom        0.142810     -0.232936      0.090126
    12   Atom        0.151304      0.149961     -0.301265
    13   Atom        0.149709     -0.293415      0.143705
    14   Atom        0.089617      0.175564     -0.265181
    15   Atom        0.139039      0.135804     -0.274843
    16   Atom        0.119519      0.082822     -0.202341
    17   Atom        0.107133      0.136971     -0.244104
    18   Atom        0.148809     -0.302440      0.153631
    19   Atom        0.081291      0.184638     -0.265929
    20   Atom       -0.124451     -0.022680      0.147131
    21   Atom        0.089602     -0.024889     -0.064713
    22   Atom        0.123349     -0.175917      0.052568
    23   Atom       -0.082683      0.150581     -0.067898
    24   Atom        0.070496     -0.395548      0.325052
    25   Atom        0.178165     -0.302545      0.124380
 --------------------------------------------------------
                        XY            XZ            YZ
 --------------------------------------------------------
     1   Atom        0.207851      0.080450     -0.085528
     2   Atom       -0.038121      0.043413      0.015326
     3   Atom       -0.184672     -0.072170     -0.125371
     4   Atom        0.069296     -0.193874      0.101250
     5   Atom       -0.112115     -0.365204     -0.244867
     6   Atom       -0.218201     -1.175296      0.327475
     7   Atom       -0.151747      0.132640      0.062252
     8   Atom       -0.147663     -0.163574     -0.075825
     9   Atom        0.033514     -0.007881      0.005900
    10   Atom       -0.051728      0.130382      0.059214
    11   Atom       -0.045192     -0.024219     -0.162706
    12   Atom        0.007118     -0.036319      0.039198
    13   Atom       -0.025948     -0.012714     -0.102396
    14   Atom        0.001017      0.175201      0.093509
    15   Atom       -0.036281      0.185004      0.080977
    16   Atom       -0.036502      0.147094      0.059075
    17   Atom       -0.030459      0.161023      0.080008
    18   Atom       -0.027311     -0.015562     -0.095075
    19   Atom       -0.058524      0.143560      0.075322
    20   Atom        0.215282     -0.072415      0.044404
    21   Atom        0.090068     -0.100615      0.196085
    22   Atom        0.080115      0.054465     -0.179090
    23   Atom       -0.082973      0.206409      0.006935
    24   Atom        0.230032      0.712534      0.318645
    25   Atom        0.001125      0.044369      0.190162
 --------------------------------------------------------


 ---------------------------------------------------------------------------------
              Nuclear Quadrupole Coupling Constant in Principal Axis System
 ---------------------------------------------------------------------------------

       Atom             a.u.   MegaHertz   Gauss  10(-4) cm-1        Axes

              Baa    -0.5442     2.613     0.933     0.872 -0.5463 -0.5355  0.6441
    24 N(14)  Bbb    -0.4853     2.331     0.832     0.777 -0.5684  0.8018  0.1845
              Bcc     1.0295    -4.944    -1.764    -1.649  0.6152  0.2653  0.7424
 

 ---------------------------------------------------------------------------------

 No NMR shielding tensors so no spin-rotation constants.
 Leave Link  601 at Wed Nov 29 20:11:40 2017, MaxMem=  2147483648 cpu:         0.4
 FitSet:  NAtFit=    25 NAtPot=    25 NAtFrz=     0 MDM=    29 TotChg=   0.00000
 Merz-Kollman atomic radii used.
 Atom Element Radius
    1     1    1.20
    2     6    1.50
    3     1    1.20
    4     1    1.20
    5     6    1.50
    6     8    1.40
    7     1    1.20
    8     1    1.20
    9     6    1.50
   10     6    1.50
   11     1    1.20
   12     1    1.20
   13     1    1.20
   14     6    1.50
   15     6    1.50
   16     6    1.50
   17     6    1.50
   18     1    1.20
   19     6    1.50
   20     1    1.20
   21     1    1.20
   22     1    1.20
   23     6    1.50
   24     7    1.50
   25     1    1.20
 Generate VDW surfaces: Layer= 4 Dens= 6 Start= 1.400 Inc= 0.200

 **********************************************************************

            Electrostatic Properties Using The SCF Density

 **********************************************************************

       Atomic Center    1 is at  -4.494860  0.240687  1.571652
       Atomic Center    2 is at  -3.791116 -0.538839  1.278142
       Atomic Center    3 is at  -4.340623 -1.403160  0.904473
       Atomic Center    4 is at  -3.193937 -0.833346  2.141135
       Atomic Center    5 is at  -2.840876 -0.040680  0.168069
       Atomic Center    6 is at  -2.947819  1.109596 -0.262122
       Atomic Center    7 is at   4.763637 -0.822874  0.160333
       Atomic Center    8 is at   3.640128  1.439565  0.897761
       Atomic Center    9 is at   3.831012 -1.251558  0.525308
       Atomic Center   10 is at   2.742056  1.021420  0.465314
       Atomic Center   11 is at   3.708717 -2.250693  0.108721
       Atomic Center   12 is at   3.915754 -1.343663  1.607204
       Atomic Center   13 is at   1.709463  2.914170  0.438985
       Atomic Center   14 is at   2.661312 -0.355572  0.182393
       Atomic Center   15 is at   1.644694  1.860887  0.202253
       Atomic Center   16 is at   1.484199 -0.890264 -0.381920
       Atomic Center   17 is at   0.465742  1.326689 -0.351554
       Atomic Center   18 is at   1.416976 -1.946764 -0.592659
       Atomic Center   19 is at   0.382903 -0.049090 -0.650604
       Atomic Center   20 is at  -0.379816  1.972563 -0.542018
       Atomic Center   21 is at  -1.257570  0.079850 -2.014284
       Atomic Center   22 is at  -0.642681 -1.542488 -1.777855
       Atomic Center   23 is at  -0.886768 -0.615274 -1.259328
       Atomic Center   24 is at  -1.923844 -0.904507 -0.279941
       Atomic Center   25 is at  -1.954681 -1.855369  0.084673
      ESP Fit Center   26 is at  -4.494860  0.240687  3.251652
      ESP Fit Center   27 is at  -4.277452  0.617249  3.194407
      ESP Fit Center   28 is at  -4.712268  0.617249  3.194407
      ESP Fit Center   29 is at  -4.929676  0.240687  3.194407
      ESP Fit Center   30 is at  -4.712268 -0.135875  3.194407
      ESP Fit Center   31 is at  -3.767399  0.660687  3.026574
      ESP Fit Center   32 is at  -4.074860  0.968148  3.026574
      ESP Fit Center   33 is at  -4.494860  1.080687  3.026574
      ESP Fit Center   34 is at  -4.914860  0.968148  3.026574
      ESP Fit Center   35 is at  -5.222321  0.660687  3.026574
      ESP Fit Center   36 is at  -5.334860  0.240687  3.026574
      ESP Fit Center   37 is at  -5.222321 -0.179313  3.026574
      ESP Fit Center   38 is at  -3.616962  1.040996  2.759591
      ESP Fit Center   39 is at  -3.965350  1.304087  2.759591
      ESP Fit Center   40 is at  -4.385251  1.423559  2.759591
      ESP Fit Center   41 is at  -4.819955  1.383277  2.759591
      ESP Fit Center   42 is at  -5.210754  1.188683  2.759591
      ESP Fit Center   43 is at  -5.504867  0.866056  2.759591
      ESP Fit Center   44 is at  -5.662573  0.458970  2.759591
      ESP Fit Center   45 is at  -5.662573  0.022404  2.759591
      ESP Fit Center   46 is at  -5.504867 -0.384683  2.759591
      ESP Fit Center   47 is at  -3.587731  1.378191  2.411652
      ESP Fit Center   48 is at  -3.963317  1.595036  2.411652
      ESP Fit Center   49 is at  -4.386134  1.691541  2.411652
      ESP Fit Center   50 is at  -4.818611  1.659132  2.411652
      ESP Fit Center   51 is at  -5.222321  1.500687  2.411652
      ESP Fit Center   52 is at  -5.561394  1.230286  2.411652
      ESP Fit Center   53 is at  -5.805700  0.871954  2.411652
      ESP Fit Center   54 is at  -5.933532  0.457532  2.411652
      ESP Fit Center   55 is at  -5.933532  0.023842  2.411652
      ESP Fit Center   56 is at  -5.805700 -0.390580  2.411652
      ESP Fit Center   57 is at  -5.561394 -0.748912  2.411652
      ESP Fit Center   58 is at  -3.347399  1.388148  2.006468
      ESP Fit Center   59 is at  -3.683482  1.646034  2.006468
      ESP Fit Center   60 is at  -4.074860  1.808148  2.006468
      ESP Fit Center   61 is at  -4.494860  1.863442  2.006468
      ESP Fit Center   62 is at  -4.914860  1.808148  2.006468
      ESP Fit Center   63 is at  -5.306238  1.646034  2.006468
      ESP Fit Center   64 is at  -5.642321  1.388148  2.006468
      ESP Fit Center   65 is at  -5.900207  1.052065  2.006468
      ESP Fit Center   66 is at  -6.062321  0.660687  2.006468
      ESP Fit Center   67 is at  -6.117615  0.240687  2.006468
      ESP Fit Center   68 is at  -6.062321 -0.179313  2.006468
      ESP Fit Center   69 is at  -5.900207 -0.570691  2.006468
      ESP Fit Center   70 is at  -3.594671  1.659158  1.571652
      ESP Fit Center   71 is at  -3.975712  1.838462  1.571652
      ESP Fit Center   72 is at  -4.389372  1.917372  1.571652
      ESP Fit Center   73 is at  -4.809661  1.890929  1.571652
      ESP Fit Center   74 is at  -5.210169  1.760796  1.571652
      ESP Fit Center   75 is at  -5.565732  1.535149  1.571652
      ESP Fit Center   76 is at  -5.854009  1.228166  1.571652
      ESP Fit Center   77 is at  -6.056885  0.859136  1.571652
      ESP Fit Center   78 is at  -6.161613  0.451247  1.571652
      ESP Fit Center   79 is at  -6.161613  0.030127  1.571652
      ESP Fit Center   80 is at  -6.056885 -0.377762  1.571652
      ESP Fit Center   81 is at  -4.494860  1.863442  1.136836
      ESP Fit Center   82 is at  -4.914860  1.808148  1.136836
      ESP Fit Center   83 is at  -5.306238  1.646034  1.136836
      ESP Fit Center   84 is at  -5.642321  1.388148  1.136836
      ESP Fit Center   85 is at  -5.900207  1.052065  1.136836
      ESP Fit Center   86 is at  -6.062321  0.660687  1.136836
      ESP Fit Center   87 is at  -6.117615  0.240687  1.136836
      ESP Fit Center   88 is at  -6.062321 -0.179313  1.136836
      ESP Fit Center   89 is at  -5.900207 -0.570691  1.136836
      ESP Fit Center   90 is at  -4.818611  1.659132  0.731652
      ESP Fit Center   91 is at  -5.222321  1.500687  0.731652
      ESP Fit Center   92 is at  -5.561394  1.230286  0.731652
      ESP Fit Center   93 is at  -5.805700  0.871954  0.731652
      ESP Fit Center   94 is at  -5.933532  0.457532  0.731652
      ESP Fit Center   95 is at  -5.933532  0.023842  0.731652
      ESP Fit Center   96 is at  -4.819955  1.383277  0.383712
      ESP Fit Center   97 is at  -5.210754  1.188683  0.383712
      ESP Fit Center   98 is at  -5.504867  0.866056  0.383712
      ESP Fit Center   99 is at  -5.662573  0.458970  0.383712
      ESP Fit Center  100 is at  -5.662573  0.022404  0.383712
      ESP Fit Center  101 is at  -4.914860  0.968148  0.116729
      ESP Fit Center  102 is at  -5.222321  0.660687  0.116729
      ESP Fit Center  103 is at  -4.487084 -0.137022  3.218289
      ESP Fit Center  104 is at  -4.594751 -0.538839  3.218289
      ESP Fit Center  105 is at  -4.487084 -0.940657  3.218289
      ESP Fit Center  106 is at  -3.683467  0.622881  3.024228
      ESP Fit Center  107 is at  -4.937948 -0.753219  3.024228
      ESP Fit Center  108 is at  -4.783062 -1.153026  3.024228
      ESP Fit Center  109 is at  -4.494208 -1.469884  3.024228
      ESP Fit Center  110 is at  -3.174256  0.811895  2.763066
      ESP Fit Center  111 is at  -5.215890 -0.957191  2.763066
      ESP Fit Center  112 is at  -5.040314 -1.341650  2.763066
      ESP Fit Center  113 is at  -4.763534 -1.661070  2.763066
      ESP Fit Center  114 is at  -4.407976 -1.889574  2.763066
      ESP Fit Center  115 is at  -2.799226  0.898161  2.444840
      ESP Fit Center  116 is at  -3.171945  1.093780  2.444840
      ESP Fit Center  117 is at  -5.486464 -0.956705  2.444840
      ESP Fit Center  118 is at  -5.337198 -1.350286  2.444840
      ESP Fit Center  119 is at  -5.098080 -1.696709  2.444840
      ESP Fit Center  120 is at  -4.783006 -1.975840  2.444840
      ESP Fit Center  121 is at  -4.410287 -2.171458  2.444840
      ESP Fit Center  122 is at  -2.246578  0.635288  2.081777
      ESP Fit Center  123 is at  -2.535091  0.939867  2.081777
      ESP Fit Center  124 is at  -2.882335  1.175304  2.081777
      ESP Fit Center  125 is at  -3.272072  1.330589  2.081777
      ESP Fit Center  126 is at  -5.629702 -1.158331  2.081777
      ESP Fit Center  127 is at  -3.686078 -2.476141  2.081777
      ESP Fit Center  128 is at  -3.075789  1.392601  1.687832
      ESP Fit Center  129 is at  -3.075789 -2.470280  1.687832
      ESP Fit Center  130 is at  -2.987481 -2.478986  1.278142
      ESP Fit Center  131 is at  -5.719890 -0.329073  0.474507
      ESP Fit Center  132 is at  -5.337198  0.272607  0.111445
      ESP Fit Center  133 is at  -5.486464 -0.120974  0.111445
      ESP Fit Center  134 is at  -5.040314  0.263971 -0.206782
      ESP Fit Center  135 is at  -5.215890 -0.120488 -0.206782
      ESP Fit Center  136 is at  -5.276040 -0.538839 -0.206782
      ESP Fit Center  137 is at  -4.937948 -0.324459 -0.467944
      ESP Fit Center  138 is at  -5.068084 -1.823160  2.359396
      ESP Fit Center  139 is at  -4.760623 -2.130622  2.359396
      ESP Fit Center  140 is at  -5.508335 -1.621444  2.092413
      ESP Fit Center  141 is at  -5.350629 -2.028530  2.092413
      ESP Fit Center  142 is at  -5.056516 -2.351156  2.092413
      ESP Fit Center  143 is at  -4.665718 -2.545751  2.092413
      ESP Fit Center  144 is at  -4.231013 -2.586032  2.092413
      ESP Fit Center  145 is at  -5.779295 -1.186315  1.744473
      ESP Fit Center  146 is at  -5.779295 -1.620005  1.744473
      ESP Fit Center  147 is at  -5.651463 -2.034428  1.744473
      ESP Fit Center  148 is at  -5.407156 -2.392759  1.744473
      ESP Fit Center  149 is at  -5.068084 -2.663160  1.744473
      ESP Fit Center  150 is at  -4.664373 -2.821605  1.744473
      ESP Fit Center  151 is at  -4.231896 -2.854015  1.744473
      ESP Fit Center  152 is at  -3.809080 -2.757510  1.744473
      ESP Fit Center  153 is at  -5.908084 -0.983160  1.339289
      ESP Fit Center  154 is at  -5.963378 -1.403160  1.339289
      ESP Fit Center  155 is at  -5.908084 -1.823160  1.339289
      ESP Fit Center  156 is at  -5.745970 -2.214538  1.339289
      ESP Fit Center  157 is at  -5.488084 -2.550622  1.339289
      ESP Fit Center  158 is at  -5.152000 -2.808508  1.339289
      ESP Fit Center  159 is at  -4.760623 -2.970622  1.339289
      ESP Fit Center  160 is at  -4.340623 -3.025916  1.339289
      ESP Fit Center  161 is at  -3.920623 -2.970622  1.339289
      ESP Fit Center  162 is at  -3.529245 -2.808508  1.339289
      ESP Fit Center  163 is at  -5.902647 -0.784711  0.904473
      ESP Fit Center  164 is at  -6.007375 -1.192601  0.904473
      ESP Fit Center  165 is at  -6.007375 -1.613720  0.904473
      ESP Fit Center  166 is at  -5.902647 -2.021610  0.904473
      ESP Fit Center  167 is at  -5.699771 -2.390640  0.904473
      ESP Fit Center  168 is at  -5.411495 -2.697623  0.904473
      ESP Fit Center  169 is at  -5.055932 -2.923270  0.904473
      ESP Fit Center  170 is at  -4.655423 -3.053403  0.904473
      ESP Fit Center  171 is at  -4.235135 -3.079845  0.904473
      ESP Fit Center  172 is at  -3.821474 -3.000935  0.904473
      ESP Fit Center  173 is at  -3.440434 -2.821631  0.904473
      ESP Fit Center  174 is at  -5.745970 -0.591783  0.469657
      ESP Fit Center  175 is at  -5.908084 -0.983160  0.469657
      ESP Fit Center  176 is at  -5.963378 -1.403160  0.469657
      ESP Fit Center  177 is at  -5.908084 -1.823160  0.469657
      ESP Fit Center  178 is at  -5.745970 -2.214538  0.469657
      ESP Fit Center  179 is at  -5.488084 -2.550622  0.469657
      ESP Fit Center  180 is at  -5.152000 -2.808508  0.469657
      ESP Fit Center  181 is at  -4.760623 -2.970622  0.469657
      ESP Fit Center  182 is at  -4.340623 -3.025916  0.469657
      ESP Fit Center  183 is at  -3.920623 -2.970622  0.469657
      ESP Fit Center  184 is at  -3.529245 -2.808508  0.469657
      ESP Fit Center  185 is at  -5.651463 -0.771893  0.064473
      ESP Fit Center  186 is at  -5.779295 -1.186315  0.064473
      ESP Fit Center  187 is at  -5.779295 -1.620005  0.064473
      ESP Fit Center  188 is at  -5.651463 -2.034428  0.064473
      ESP Fit Center  189 is at  -5.407156 -2.392759  0.064473
      ESP Fit Center  190 is at  -5.068084 -2.663160  0.064473
      ESP Fit Center  191 is at  -4.664373 -2.821605  0.064473
      ESP Fit Center  192 is at  -4.231896 -2.854015  0.064473
      ESP Fit Center  193 is at  -3.809080 -2.757510  0.064473
      ESP Fit Center  194 is at  -5.350629 -0.777791 -0.283466
      ESP Fit Center  195 is at  -5.508335 -1.184877 -0.283466
      ESP Fit Center  196 is at  -5.508335 -1.621444 -0.283466
      ESP Fit Center  197 is at  -5.350629 -2.028530 -0.283466
      ESP Fit Center  198 is at  -5.056516 -2.351156 -0.283466
      ESP Fit Center  199 is at  -4.665718 -2.545751 -0.283466
      ESP Fit Center  200 is at  -4.231013 -2.586032 -0.283466
      ESP Fit Center  201 is at  -3.811113 -2.466560 -0.283466
      ESP Fit Center  202 is at  -5.068084 -0.983160 -0.550449
      ESP Fit Center  203 is at  -5.180623 -1.403160 -0.550449
      ESP Fit Center  204 is at  -5.068084 -1.823160 -0.550449
      ESP Fit Center  205 is at  -4.760623 -2.130622 -0.550449
      ESP Fit Center  206 is at  -4.340623 -2.243160 -0.550449
      ESP Fit Center  207 is at  -3.920623 -2.130622 -0.550449
      ESP Fit Center  208 is at  -4.558031 -1.026599 -0.718282
      ESP Fit Center  209 is at  -4.775439 -1.403160 -0.718282
      ESP Fit Center  210 is at  -4.558031 -1.779722 -0.718282
      ESP Fit Center  211 is at  -4.123215 -1.779722 -0.718282
      ESP Fit Center  212 is at  -4.340623 -1.403160 -0.775527
      ESP Fit Center  213 is at  -3.193937 -0.833346  3.821135
      ESP Fit Center  214 is at  -2.759121 -0.833346  3.763891
      ESP Fit Center  215 is at  -2.976529 -0.456785  3.763891
      ESP Fit Center  216 is at  -3.411345 -0.456785  3.763891
      ESP Fit Center  217 is at  -3.628753 -0.833346  3.763891
      ESP Fit Center  218 is at  -3.411345 -1.209908  3.763891
      ESP Fit Center  219 is at  -2.976529 -1.209908  3.763891
      ESP Fit Center  220 is at  -2.353937 -0.833346  3.596058
      ESP Fit Center  221 is at  -2.466476 -0.413346  3.596058
      ESP Fit Center  222 is at  -2.773937 -0.105885  3.596058
      ESP Fit Center  223 is at  -3.193937  0.006654  3.596058
      ESP Fit Center  224 is at  -3.613937 -0.105885  3.596058
      ESP Fit Center  225 is at  -3.921399 -0.413346  3.596058
      ESP Fit Center  226 is at  -4.033937 -0.833346  3.596058
      ESP Fit Center  227 is at  -3.921399 -1.253346  3.596058
      ESP Fit Center  228 is at  -3.613937 -1.560808  3.596058
      ESP Fit Center  229 is at  -3.193937 -1.673346  3.596058
      ESP Fit Center  230 is at  -2.773937 -1.560808  3.596058
      ESP Fit Center  231 is at  -2.466476 -1.253346  3.596058
      ESP Fit Center  232 is at  -2.005998 -0.833346  3.329075
      ESP Fit Center  233 is at  -2.086217 -0.404213  3.329075
      ESP Fit Center  234 is at  -2.316040 -0.033037  3.329075
      ESP Fit Center  235 is at  -2.664427  0.230053  3.329075
      ESP Fit Center  236 is at  -3.084328  0.349526  3.329075
      ESP Fit Center  237 is at  -3.519032  0.309244  3.329075
      ESP Fit Center  238 is at  -3.909831  0.114650  3.329075
      ESP Fit Center  239 is at  -4.203944 -0.207977  3.329075
      ESP Fit Center  240 is at  -4.361650 -0.615063  3.329075
      ESP Fit Center  241 is at  -4.361650 -1.051630  3.329075
      ESP Fit Center  242 is at  -4.203944 -1.458716  3.329075
      ESP Fit Center  243 is at  -3.909831 -1.781342  3.329075
      ESP Fit Center  244 is at  -3.519032 -1.975937  3.329075
      ESP Fit Center  245 is at  -3.084328 -2.016218  3.329075
      ESP Fit Center  246 is at  -2.664427 -1.896746  3.329075
      ESP Fit Center  247 is at  -2.316040 -1.633656  3.329075
      ESP Fit Center  248 is at  -2.086217 -1.262479  3.329075
      ESP Fit Center  249 is at  -1.739015 -0.833346  2.981135
      ESP Fit Center  250 is at  -1.803653 -0.404500  2.981135
      ESP Fit Center  251 is at  -1.991824 -0.013759  2.981135
      ESP Fit Center  252 is at  -2.286808  0.304158  2.981135
      ESP Fit Center  253 is at  -2.662394  0.521003  2.981135
      ESP Fit Center  254 is at  -3.085211  0.617508  2.981135
      ESP Fit Center  255 is at  -4.260471 -1.822945  2.981135
      ESP Fit Center  256 is at  -3.921399 -2.093346  2.981135
      ESP Fit Center  257 is at  -3.517688 -2.251791  2.981135
      ESP Fit Center  258 is at  -3.085211 -2.284201  2.981135
      ESP Fit Center  259 is at  -2.662394 -2.187696  2.981135
      ESP Fit Center  260 is at  -2.286808 -1.970851  2.981135
      ESP Fit Center  261 is at  -1.991824 -1.652933  2.981135
      ESP Fit Center  262 is at  -1.803653 -1.262192  2.981135
      ESP Fit Center  263 is at  -1.571182 -0.833346  2.575951
      ESP Fit Center  264 is at  -1.626476 -0.413346  2.575951
      ESP Fit Center  265 is at  -1.788590 -0.021969  2.575951
      ESP Fit Center  266 is at  -2.046476  0.314115  2.575951
      ESP Fit Center  267 is at  -2.382560  0.572001  2.575951
      ESP Fit Center  268 is at  -4.005315 -2.238694  2.575951
      ESP Fit Center  269 is at  -3.613937 -2.400808  2.575951
      ESP Fit Center  270 is at  -3.193937 -2.456102  2.575951
      ESP Fit Center  271 is at  -2.773937 -2.400808  2.575951
      ESP Fit Center  272 is at  -2.382560 -2.238694  2.575951
      ESP Fit Center  273 is at  -2.046476 -1.980808  2.575951
      ESP Fit Center  274 is at  -1.788590 -1.644724  2.575951
      ESP Fit Center  275 is at  -1.626476 -1.253346  2.575951
      ESP Fit Center  276 is at  -1.513937 -0.833346  2.141135
      ESP Fit Center  277 is at  -1.566718 -0.415547  2.141135
      ESP Fit Center  278 is at  -1.721742 -0.024000  2.141135
      ESP Fit Center  279 is at  -1.969270  0.316693  2.141135
      ESP Fit Center  280 is at  -3.508738 -2.483589  2.141135
      ESP Fit Center  281 is at  -3.088449 -2.510031  2.141135
      ESP Fit Center  282 is at  -2.674789 -2.431121  2.141135
      ESP Fit Center  283 is at  -2.293748 -2.251817  2.141135
      ESP Fit Center  284 is at  -1.969270 -1.983385  2.141135
      ESP Fit Center  285 is at  -1.721742 -1.642692  2.141135
      ESP Fit Center  286 is at  -1.566718 -1.251145  2.141135
      ESP Fit Center  287 is at  -2.773937 -2.400808  1.706320
      ESP Fit Center  288 is at  -2.382560 -2.238694  1.706320
      ESP Fit Center  289 is at  -1.674179 -0.040680  1.914155
      ESP Fit Center  290 is at  -1.752963  0.380780  1.914155
      ESP Fit Center  291 is at  -1.978677  0.745319  1.914155
      ESP Fit Center  292 is at  -2.320835  1.003705  1.914155
      ESP Fit Center  293 is at  -1.355952 -0.040680  1.652993
      ESP Fit Center  294 is at  -1.416102  0.377672  1.652993
      ESP Fit Center  295 is at  -1.591679  0.762131  1.652993
      ESP Fit Center  296 is at  -1.868458  1.081551  1.652993
      ESP Fit Center  297 is at  -2.224017  1.310055  1.652993
      ESP Fit Center  298 is at  -2.629550  1.429130  1.652993
      ESP Fit Center  299 is at  -1.145528  0.377186  1.334766
      ESP Fit Center  300 is at  -1.294794  0.770767  1.334766
      ESP Fit Center  301 is at  -1.533912  1.117190  1.334766
      ESP Fit Center  302 is at  -1.080047  0.773967  0.971704
      ESP Fit Center  303 is at  -1.296339  1.133447  0.971704
      ESP Fit Center  304 is at  -4.769650  0.169087 -0.635567
      ESP Fit Center  305 is at  -4.769650 -0.250446 -0.635567
      ESP Fit Center  306 is at  -4.679463 -0.660172 -0.635567
      ESP Fit Center  307 is at  -4.586963 -0.040680 -0.998629
      ESP Fit Center  308 is at  -4.536225 -0.458545 -0.998629
      ESP Fit Center  309 is at  -4.386959 -0.852126 -0.998629
      ESP Fit Center  310 is at  -4.147841 -1.198549 -0.998629
      ESP Fit Center  311 is at  -3.832766 -1.477680 -0.998629
      ESP Fit Center  312 is at  -4.325801 -0.040680 -1.316856
      ESP Fit Center  313 is at  -4.265651 -0.459031 -1.316856
      ESP Fit Center  314 is at  -4.090074 -0.843490 -1.316856
      ESP Fit Center  315 is at  -3.813295 -1.162910 -1.316856
      ESP Fit Center  316 is at  -3.987709 -0.255060 -1.578017
      ESP Fit Center  317 is at  -3.832823 -0.654867 -1.578017
      ESP Fit Center  318 is at  -3.644512 -0.040680 -1.772078
      ESP Fit Center  319 is at  -3.536845 -0.442497 -1.772078
      ESP Fit Center  320 is at  -3.250566 -0.040680 -1.891580
      ESP Fit Center  321 is at  -2.744065  1.462507  1.655048
      ESP Fit Center  322 is at  -3.151572  1.462507  1.655048
      ESP Fit Center  323 is at  -2.257420  1.508198  1.528428
      ESP Fit Center  324 is at  -2.549217  1.799995  1.528428
      ESP Fit Center  325 is at  -2.947819  1.906800  1.528428
      ESP Fit Center  326 is at  -3.346421  1.799995  1.528428
      ESP Fit Center  327 is at  -1.873556  1.525768  1.323552
      ESP Fit Center  328 is at  -2.096437  1.885733  1.323552
      ESP Fit Center  329 is at  -2.434302  2.140877  1.323552
      ESP Fit Center  330 is at  -2.841520  2.256740  1.323552
      ESP Fit Center  331 is at  -3.263095  2.217676  1.323552
      ESP Fit Center  332 is at  -3.642089  2.028959  1.323552
      ESP Fit Center  333 is at  -1.550256  1.519957  1.049374
      ESP Fit Center  334 is at  -1.722479  1.897074  1.049374
      ESP Fit Center  335 is at  -1.993972  2.210393  1.049374
      ESP Fit Center  336 is at  -2.342740  2.434533  1.049374
      ESP Fit Center  337 is at  -2.740528  2.551334  1.049374
      ESP Fit Center  338 is at  -3.155109  2.551334  1.049374
      ESP Fit Center  339 is at  -3.552897  2.434533  1.049374
      ESP Fit Center  340 is at  -3.901665  2.210393  1.049374
      ESP Fit Center  341 is at  -4.173158  1.897074  1.049374
      ESP Fit Center  342 is at  -1.710460  2.271553  0.717878
      ESP Fit Center  343 is at  -2.038301  2.542766  0.717878
      ESP Fit Center  344 is at  -2.423290  2.723929  0.717878
      ESP Fit Center  345 is at  -2.841237  2.803656  0.717878
      ESP Fit Center  346 is at  -3.265882  2.776940  0.717878
      ESP Fit Center  347 is at  -3.670541  2.645458  0.717878
      ESP Fit Center  348 is at  -4.029788  2.417473  0.717878
      ESP Fit Center  349 is at  -4.321052  2.107308  0.717878
      ESP Fit Center  350 is at  -4.526030  1.734454  0.717878
      ESP Fit Center  351 is at  -1.785590  2.566985  0.343552
      ESP Fit Center  352 is at  -2.139029  2.789066  0.343552
      ESP Fit Center  353 is at  -2.533024  2.926931  0.343552
      ESP Fit Center  354 is at  -2.947819  2.973667  0.343552
      ESP Fit Center  355 is at  -3.362613  2.926931  0.343552
      ESP Fit Center  356 is at  -3.756609  2.789066  0.343552
      ESP Fit Center  357 is at  -4.110048  2.566985  0.343552
      ESP Fit Center  358 is at  -4.405208  2.271825  0.343552
      ESP Fit Center  359 is at  -4.627288  1.918386  0.343552
      ESP Fit Center  360 is at  -4.765153  1.524391  0.343552
      ESP Fit Center  361 is at  -2.034768  2.831793 -0.057246
      ESP Fit Center  362 is at  -2.426336  2.987808 -0.057246
      ESP Fit Center  363 is at  -2.842288  3.056000 -0.057246
      ESP Fit Center  364 is at  -3.263174  3.033180 -0.057246
      ESP Fit Center  365 is at  -3.669315  2.920416 -0.057246
      ESP Fit Center  366 is at  -4.041720  2.722979 -0.057246
      ESP Fit Center  367 is at  -4.362975  2.450103 -0.057246
      ESP Fit Center  368 is at  -4.618059  2.114546 -0.057246
      ESP Fit Center  369 is at  -4.795044  1.731999 -0.057246
      ESP Fit Center  370 is at  -4.885655  1.320348 -0.057246
      ESP Fit Center  371 is at  -4.885655  0.898843 -0.057246
      ESP Fit Center  372 is at  -2.034768  2.831793 -0.466997
      ESP Fit Center  373 is at  -2.426336  2.987808 -0.466997
      ESP Fit Center  374 is at  -2.842288  3.056000 -0.466997
      ESP Fit Center  375 is at  -3.263174  3.033180 -0.466997
      ESP Fit Center  376 is at  -3.669315  2.920416 -0.466997
      ESP Fit Center  377 is at  -4.041720  2.722979 -0.466997
      ESP Fit Center  378 is at  -4.362975  2.450103 -0.466997
      ESP Fit Center  379 is at  -4.618059  2.114546 -0.466997
      ESP Fit Center  380 is at  -4.795044  1.731999 -0.466997
      ESP Fit Center  381 is at  -4.885655  1.320348 -0.466997
      ESP Fit Center  382 is at  -4.885655  0.898843 -0.466997
      ESP Fit Center  383 is at  -4.795044  0.487193 -0.466997
      ESP Fit Center  384 is at  -2.139029  2.789066 -0.867795
      ESP Fit Center  385 is at  -2.533024  2.926931 -0.867795
      ESP Fit Center  386 is at  -2.947819  2.973667 -0.867795
      ESP Fit Center  387 is at  -3.362613  2.926931 -0.867795
      ESP Fit Center  388 is at  -3.756609  2.789066 -0.867795
      ESP Fit Center  389 is at  -4.110048  2.566985 -0.867795
      ESP Fit Center  390 is at  -4.405208  2.271825 -0.867795
      ESP Fit Center  391 is at  -4.627288  1.918386 -0.867795
      ESP Fit Center  392 is at  -4.765153  1.524391 -0.867795
      ESP Fit Center  393 is at  -4.811890  1.109596 -0.867795
      ESP Fit Center  394 is at  -4.765153  0.694801 -0.867795
      ESP Fit Center  395 is at  -2.038301  2.542766 -1.242122
      ESP Fit Center  396 is at  -2.423290  2.723929 -1.242122
      ESP Fit Center  397 is at  -2.841237  2.803656 -1.242122
      ESP Fit Center  398 is at  -3.265882  2.776940 -1.242122
      ESP Fit Center  399 is at  -3.670541  2.645458 -1.242122
      ESP Fit Center  400 is at  -4.029788  2.417473 -1.242122
      ESP Fit Center  401 is at  -4.321052  2.107308 -1.242122
      ESP Fit Center  402 is at  -4.526030  1.734454 -1.242122
      ESP Fit Center  403 is at  -4.631844  1.322338 -1.242122
      ESP Fit Center  404 is at  -4.631844  0.896854 -1.242122
      ESP Fit Center  405 is at  -4.526030  0.484738 -1.242122
      ESP Fit Center  406 is at  -1.722479  1.897074 -1.573618
      ESP Fit Center  407 is at  -1.993972  2.210393 -1.573618
      ESP Fit Center  408 is at  -2.342740  2.434533 -1.573618
      ESP Fit Center  409 is at  -2.740528  2.551334 -1.573618
      ESP Fit Center  410 is at  -3.155109  2.551334 -1.573618
      ESP Fit Center  411 is at  -3.552897  2.434533 -1.573618
      ESP Fit Center  412 is at  -3.901665  2.210393 -1.573618
      ESP Fit Center  413 is at  -4.173158  1.897074 -1.573618
      ESP Fit Center  414 is at  -4.345382  1.519957 -1.573618
      ESP Fit Center  415 is at  -4.404383  1.109596 -1.573618
      ESP Fit Center  416 is at  -4.345382  0.699234 -1.573618
      ESP Fit Center  417 is at  -4.173158  0.322118 -1.573618
      ESP Fit Center  418 is at  -2.096437  1.885733 -1.847795
      ESP Fit Center  419 is at  -2.434302  2.140877 -1.847795
      ESP Fit Center  420 is at  -2.841520  2.256740 -1.847795
      ESP Fit Center  421 is at  -3.263095  2.217676 -1.847795
      ESP Fit Center  422 is at  -3.642089  2.028959 -1.847795
      ESP Fit Center  423 is at  -3.927319  1.716077 -1.847795
      ESP Fit Center  424 is at  -4.080262  1.321286 -1.847795
      ESP Fit Center  425 is at  -4.080262  0.897906 -1.847795
      ESP Fit Center  426 is at  -3.927319  0.503115 -1.847795
      ESP Fit Center  427 is at  -3.642089  0.190233 -1.847795
      ESP Fit Center  428 is at  -2.257420  1.508198 -2.052671
[...]
 6259 Fit      -0.004963
 6260 Fit      -0.004087
 6261 Fit      -0.005543
 6262 Fit      -0.003235
 6263 Fit      -0.006826
 6264 Fit      -0.004429
 6265 Fit      -0.002121
 6266 Fit      -0.007891
 6267 Fit      -0.005414
 6268 Fit      -0.003012
 6269 Fit      -0.000820
 6270 Fit      -0.010108
 6271 Fit      -0.007365
 6272 Fit      -0.004713
 6273 Fit      -0.002304
 6274 Fit      -0.000103
 6275 Fit      -0.007202
 6276 Fit      -0.007089
 6277 Fit      -0.009662
 6278 Fit      -0.006783
 6279 Fit      -0.009190
 6280 Fit      -0.011911
 6281 Fit      -0.014803
 6282 Fit      -0.008929
 6283 Fit      -0.011489
 6284 Fit      -0.014408
 6285 Fit      -0.017057
 6286 Fit      -0.007275
 6287 Fit      -0.011090
 6288 Fit      -0.013893
 6289 Fit      -0.008052
 6290 Fit      -0.006506
 6291 Fit      -0.006850
 6292 Fit      -0.008119
 6293 Fit      -0.009318
 6294 Fit      -0.004733
 6295 Fit      -0.004904
 6296 Fit      -0.005708
 6297 Fit      -0.006835
 6298 Fit      -0.008021
 6299 Fit      -0.009179
 6300 Fit      -0.010272
 6301 Fit      -0.002799
 6302 Fit      -0.003002
 6303 Fit      -0.003637
 6304 Fit      -0.004595
 6305 Fit      -0.005704
 6306 Fit      -0.006800
 6307 Fit      -0.007810
 6308 Fit      -0.008780
 6309 Fit      -0.009800
 6310 Fit      -0.010915
 6311 Fit      -0.000809
 6312 Fit      -0.001133
 6313 Fit      -0.001778
 6314 Fit      -0.002731
 6315 Fit      -0.003883
 6316 Fit      -0.005074
 6317 Fit      -0.006166
 6318 Fit      -0.007098
 6319 Fit      -0.007921
 6320 Fit      -0.008757
 6321 Fit      -0.009711
 6322 Fit      -0.010865
 6323 Fit       0.001376
 6324 Fit       0.001172
 6325 Fit      -0.002788
 6326 Fit      -0.004036
 6327 Fit      -0.005177
 6328 Fit      -0.006124
 6329 Fit      -0.002677
 6330 Fit      -0.004017
 6331 Fit      -0.005167
 6332 Fit      -0.002783
 6333 Fit      -0.004167
 6334 Fit      -0.003674
 6335 Fit      -0.001126
 6336 Fit      -0.000580
 6337 Fit      -0.003303
 6338 Fit      -0.002624
 6339 Fit      -0.006178
 6340 Fit      -0.005327
 6341 Fit      -0.004648
 6342 Fit      -0.004142
 6343 Fit      -0.005818
 6344 Fit      -0.009003
 6345 Fit      -0.007943
 6346 Fit      -0.007141
 6347 Fit      -0.006583
 6348 Fit      -0.006291
 6349 Fit      -0.006306
 6350 Fit      -0.006662
 6351 Fit      -0.007350
 6352 Fit      -0.008320
 6353 Fit      -0.011766
 6354 Fit      -0.010514
 6355 Fit      -0.009569
 6356 Fit      -0.008931
 6357 Fit      -0.008609
 6358 Fit      -0.008629
 6359 Fit      -0.009013
 6360 Fit      -0.009756
 6361 Fit      -0.014200
 6362 Fit      -0.012764
 6363 Fit      -0.011683
 6364 Fit      -0.011008
 6365 Fit      -0.010770
 6366 Fit      -0.010998
 6367 Fit      -0.011698
 6368 Fit      -0.016512
 6369 Fit      -0.015006
 6370 Fit      -0.013798
 6371 Fit      -0.013049
 6372 Fit      -0.012849
 6373 Fit      -0.013237
 6374 Fit      -0.019565
 6375 Fit      -0.018094
 6376 Fit      -0.017076
 6377 Fit      -0.015704
 6378 Fit      -0.014884
 6379 Fit      -0.014883
 6380 Fit      -0.018591
 6381 Fit      -0.017617
 6382 Fit      -0.016581
 6383 Fit      -0.004330
 6384 Fit      -0.002150
 6385 Fit      -0.006629
 6386 Fit      -0.002446
 6387 Fit       0.000314
 6388 Fit       0.001126
 6389 Fit       0.000864
 6390 Fit      -0.009234
 6391 Fit      -0.004358
 6392 Fit       0.000433
 6393 Fit       0.003706
 6394 Fit       0.004803
 6395 Fit       0.004501
 6396 Fit       0.003857
 6397 Fit       0.003390
 6398 Fit       0.009846
 6399 Fit       0.008456
 6400 Fit       0.007041
 6401 Fit       0.006130
 6402 Fit       0.012173
 6403 Fit       0.009983
 6404 Fit       0.008608
 6405 Fit       0.007987
 6406 Fit       0.014499
 6407 Fit       0.011943
 6408 Fit       0.010442
 6409 Fit       0.009744
 6410 Fit       0.015975
 6411 Fit       0.002979
 6412 Fit       0.001750
 6413 Fit       0.000487
 6414 Fit      -0.007225
 6415 Fit      -0.010208
 6416 Fit      -0.013166
 6417 Fit      -0.015748
 6418 Fit      -0.017745
 6419 Fit       0.003432
 6420 Fit       0.002163
 6421 Fit       0.000784
 6422 Fit      -0.000713
 6423 Fit      -0.002433
 6424 Fit      -0.004573
 6425 Fit      -0.008037
 6426 Fit      -0.010768
 6427 Fit      -0.013289
 6428 Fit      -0.015200
 6429 Fit       0.000993
 6430 Fit      -0.000158
 6431 Fit      -0.001614
 6432 Fit      -0.003368
 6433 Fit      -0.005500
 6434 Fit      -0.008364
 6435 Fit      -0.010969
 6436 Fit      -0.012835
 6437 Fit      -0.001529
 6438 Fit      -0.002192
 6439 Fit      -0.003677
 6440 Fit      -0.005785
 6441 Fit      -0.008217
 6442 Fit      -0.010286
 6443 Fit      -0.004613
 6444 Fit      -0.005646
 6445 Fit      -0.007540
 6446 Fit      -0.008086
 6447 Fit      -0.008955
 6448 Fit      -0.006725
 6449 Fit      -0.005375
 6450 Fit      -0.005128
 6451 Fit      -0.006612
 6452 Fit      -0.009613
 6453 Fit      -0.005881
 6454 Fit      -0.004204
 6455 Fit      -0.002490
 6456 Fit      -0.001546
 6457 Fit      -0.001864
 6458 Fit      -0.003607
 6459 Fit      -0.005891
 6460 Fit      -0.004829
 6461 Fit      -0.003000
 6462 Fit      -0.000543
 6463 Fit      -0.005222
 6464 Fit      -0.004764
 6465 Fit      -0.003480
 6466 Fit      -0.001044
 6467 Fit      -0.004626
 6468 Fit      -0.005003
 6469 Fit      -0.004742
 6470 Fit      -0.003343
 6471 Fit      -0.003862
 6472 Fit      -0.005018
 6473 Fit      -0.005847
 6474 Fit      -0.003636
 6475 Fit      -0.007460
 6476 Fit      -0.009105
 6477 Fit      -0.009406
 6478 Fit      -0.011094
 6479 Fit      -0.011279
 6480 Fit      -0.013154
 6481 Fit      -0.012665
 6482 Fit      -0.012781
 6483 Fit      -0.013590
 6484 Fit      -0.018576
 6485 Fit      -0.018104
 6486 Fit      -0.017174
 6487 Fit      -0.015980
 6488 Fit      -0.014827
 6489 Fit      -0.014011
 6490 Fit      -0.013748
 6491 Fit      -0.014163
 6492 Fit      -0.015289
 6493 Fit      -0.016936
 6494 Fit      -0.018310
 6495 Fit      -0.017190
 6496 Fit      -0.016892
 6497 Fit      -0.016143
 6498 Fit      -0.015250
 6499 Fit      -0.014575
 6500 Fit      -0.014386
 6501 Fit      -0.014738
 6502 Fit      -0.015322
 6503 Fit      -0.015201
 6504 Fit      -0.015846
 6505 Fit      -0.015719
 6506 Fit      -0.015111
 6507 Fit      -0.014581
 6508 Fit      -0.014372
 6509 Fit      -0.013957
 6510 Fit      -0.014550
 6511 Fit      -0.014532
 6512 Fit      -0.013874
 6513 Fit      -0.012498
 6514 Fit      -0.013382
 6515 Fit       0.014557
 6516 Fit       0.012930
 6517 Fit       0.011890
 6518 Fit       0.011349
 6519 Fit       0.018052
 6520 Fit       0.015487
 6521 Fit       0.013816
 6522 Fit       0.012728
 6523 Fit       0.012062
 6524 Fit       0.021268
 6525 Fit       0.017904
 6526 Fit       0.015709
 6527 Fit       0.014228
 6528 Fit       0.013199
 6529 Fit       0.012478
 6530 Fit       0.011998
 6531 Fit       0.018988
 6532 Fit       0.016654
 6533 Fit       0.015038
 6534 Fit       0.013877
 6535 Fit       0.013011
 6536 Fit       0.012339
 6537 Fit       0.011791
 6538 Fit       0.017201
 6539 Fit       0.015564
 6540 Fit       0.014350
 6541 Fit       0.013415
 6542 Fit       0.012659
 6543 Fit       0.012010
 6544 Fit       0.011400
 6545 Fit       0.016334
 6546 Fit       0.014947
 6547 Fit       0.013886
 6548 Fit       0.013034
 6549 Fit       0.012312
 6550 Fit       0.011660
 6551 Fit       0.011030
 6552 Fit       0.014947
 6553 Fit       0.013787
 6554 Fit       0.012875
 6555 Fit       0.012107
 6556 Fit       0.011420
 6557 Fit       0.010777
 6558 Fit       0.010168
 6559 Fit       0.013870
 6560 Fit       0.012784
 6561 Fit       0.011914
 6562 Fit       0.011158
 6563 Fit       0.010469
 6564 Fit       0.009846
 6565 Fit       0.012568
 6566 Fit       0.011567
 6567 Fit       0.010732
 6568 Fit       0.009979
 6569 Fit       0.009285
 6570 Fit       0.008692
 6571 Fit       0.011662
 6572 Fit       0.010569
 6573 Fit       0.009652
 6574 Fit       0.008802
 6575 Fit       0.007985
 6576 Fit       0.007220
 6577 Fit       0.010402
 6578 Fit       0.009278
 6579 Fit       0.008282
 6580 Fit       0.007291
 6581 Fit       0.006236
 6582 Fit       0.005035
 6583 Fit       0.007918
 6584 Fit       0.006824
 6585 Fit       0.005602
 6586 Fit       0.004116
 6587 Fit       0.005337
 6588 Fit       0.003849
 6589 Fit      -0.006617
 6590 Fit      -0.002482
 6591 Fit      -0.001400
 6592 Fit      -0.018307
 6593 Fit      -0.015306
 6594 Fit      -0.016451
 6595 Fit      -0.011777
 6596 Fit      -0.013439
 6597 Fit      -0.014347
 6598 Fit      -0.014461
 6599 Fit      -0.006407
 6600 Fit      -0.009377
 6601 Fit      -0.009923
 6602 Fit      -0.011490
 6603 Fit      -0.011783
 6604 Fit      -0.010736
 6605 Fit      -0.007322
 6606 Fit      -0.008037
 6607 Fit      -0.008991
 6608 Fit      -0.006046
 6609 Fit      -0.006846
 6610 Fit      -0.004586
 6611 Fit      -0.006558
 6612 Fit      -0.008656
 6613 Fit      -0.010654
 6614 Fit      -0.004465
 6615 Fit      -0.006961
 6616 Fit      -0.009850
 6617 Fit      -0.013337
 6618 Fit      -0.003491
 6619 Fit      -0.006250
 6620 Fit      -0.009427
 6621 Fit      -0.013463
 6622 Fit      -0.002817
 6623 Fit      -0.005550
 6624 Fit      -0.008618
 6625 Fit      -0.012489
 6626 Fit      -0.017733
 6627 Fit      -0.003414
 6628 Fit      -0.005947
 6629 Fit      -0.008900
 6630 Fit      -0.012692
 6631 Fit      -0.017881
 6632 Fit      -0.003557
 6633 Fit      -0.005608
 6634 Fit      -0.008106
 6635 Fit      -0.011364
 6636 Fit      -0.015832
 6637 Fit      -0.022207
 6638 Fit      -0.006470
 6639 Fit      -0.008484
 6640 Fit      -0.011355
 6641 Fit      -0.015441
 6642 Fit      -0.021344
 6643 Fit      -0.007915
 6644 Fit      -0.009229
 6645 Fit      -0.011506
 6646 Fit      -0.014964
 6647 Fit      -0.020034
 6648 Fit      -0.011075
 6649 Fit      -0.013391
 6650 Fit      -0.017149
 6651 Fit      -0.022769
 6652 Fit      -0.012804
 6653 Fit      -0.015118
 6654 Fit      -0.019001
 6655 Fit      -0.024657
 6656 Fit      -0.014765
 6657 Fit      -0.017534
 6658 Fit      -0.021778
 6659 Fit      -0.017182
 6660 Fit      -0.020284
 6661 Fit      -0.016865
 6662 Fit      -0.020802
 6663 Fit      -0.016468
 6664 Fit      -0.011405
 6665 Fit      -0.010658
 6666 Fit      -0.011434
 6667 Fit      -0.012563
 6668 Fit      -0.014586
 6669 Fit      -0.017720
 6670 Fit      -0.021682
 6671 Fit      -0.025664
 6672 Fit      -0.017832
 6673 Fit      -0.013008
 6674 Fit      -0.008912
 6675 Fit      -0.005586
 6676 Fit      -0.006388
 6677 Fit      -0.007858
 6678 Fit      -0.009085
 6679 Fit      -0.010423
 6680 Fit      -0.012263
 6681 Fit      -0.014746
 6682 Fit      -0.017558
 6683 Fit      -0.019937
 6684 Fit      -0.020966
 6685 Fit      -0.020073
 6686 Fit      -0.017428
 6687 Fit      -0.013820
 6688 Fit      -0.010110
 6689 Fit      -0.006816
 6690 Fit      -0.004084
 6691 Fit      -0.001887
 6692 Fit      -0.003983
 6693 Fit      -0.005630
 6694 Fit      -0.007146
 6695 Fit      -0.008686
 6696 Fit      -0.010501
 6697 Fit      -0.012576
 6698 Fit      -0.014400
 6699 Fit      -0.015157
 6700 Fit      -0.014300
 6701 Fit      -0.012019
 6702 Fit      -0.009066
 6703 Fit      -0.006176
 6704 Fit      -0.003746
 6705 Fit      -0.001924
 6706 Fit      -0.000807
 6707 Fit      -0.002343
 6708 Fit      -0.003997
 6709 Fit      -0.005670
 6710 Fit      -0.007430
 6711 Fit      -0.009255
 6712 Fit      -0.010686
 6713 Fit      -0.010787
 6714 Fit      -0.009192
 6715 Fit      -0.006658
 6716 Fit      -0.004243
 6717 Fit      -0.002604
 6718 Fit      -0.002052
 6719 Fit      -0.002627
 6720 Fit      -0.004515
 6721 Fit      -0.006385
 6722 Fit      -0.007804
 6723 Fit      -0.007062
 6724 Fit      -0.004824
 6725 Fit      -0.003666
 6726 Fit      -0.005526
 6727 Fit       0.020119
 6728 Fit       0.019701
 6729 Fit       0.016759
 6730 Fit       0.017130
 6731 Fit       0.017436
 6732 Fit       0.017928
 6733 Fit       0.013657
 6734 Fit       0.014590
 6735 Fit       0.015287
 6736 Fit       0.015974
 6737 Fit       0.009260
 6738 Fit       0.011057
 6739 Fit       0.012320
 6740 Fit       0.013267
 6741 Fit       0.014069
 6742 Fit       0.014901
 6743 Fit       0.006239
 6744 Fit       0.008361
 6745 Fit       0.009940
 6746 Fit       0.011136
 6747 Fit       0.012080
 6748 Fit       0.012889
 6749 Fit       0.013686
 6750 Fit       0.014628
 6751 Fit       0.004424
 6752 Fit       0.006583
 6753 Fit       0.008266
 6754 Fit       0.009574
 6755 Fit       0.010600
 6756 Fit       0.011429
 6757 Fit       0.012142
 6758 Fit       0.012819
 6759 Fit       0.002071
 6760 Fit       0.004369
 6761 Fit       0.006248
 6762 Fit       0.007745
 6763 Fit       0.008920
 6764 Fit       0.009830
 6765 Fit       0.010529
 6766 Fit       0.011055
 6767 Fit       0.011412
 6768 Fit       0.002344
 6769 Fit       0.004302
 6770 Fit       0.005927
 6771 Fit       0.007228
 6772 Fit       0.008232
 6773 Fit       0.008965
 6774 Fit       0.009443
 6775 Fit       0.009650
 6776 Fit       0.009500
 6777 Fit       0.008789
 6778 Fit       0.001002
 6779 Fit       0.002971
 6780 Fit       0.004657
 6781 Fit       0.006015
 6782 Fit       0.007037
 6783 Fit       0.007723
 6784 Fit       0.008060
 6785 Fit       0.007993
 6786 Fit       0.007398
 6787 Fit       0.006074
 6788 Fit       0.001753
 6789 Fit       0.003428
 6790 Fit       0.004808
 6791 Fit       0.005824
 6792 Fit       0.006439
 6793 Fit       0.006609
 6794 Fit       0.006260
 6795 Fit       0.005285
 6796 Fit       0.003622
 6797 Fit       0.001729
 6798 Fit       0.003223
 6799 Fit       0.004376
 6800 Fit       0.005049
 6801 Fit       0.005154
 6802 Fit       0.004618
 6803 Fit       0.003431
 6804 Fit       0.002561
 6805 Fit       0.003554
 6806 Fit       0.003786
 6807 Fit       0.003152
 6808 Fit       0.002516
 6809 Fit      -0.004619
 6810 Fit      -0.001904
 6811 Fit      -0.011930
 6812 Fit      -0.007993
 6813 Fit      -0.004912
 6814 Fit      -0.002238
 6815 Fit       0.000258
 6816 Fit      -0.006291
 6817 Fit      -0.003518
 6818 Fit      -0.001069
 6819 Fit      -0.004628
 6820 Fit      -0.002256
 6821 Fit      -0.000130
 6822 Fit       0.000003
 6823 Fit      -0.002740
 6824 Fit      -0.003765
 6825 Fit      -0.005688
 6826 Fit      -0.006975
 6827 Fit      -0.000697
 6828 Fit       0.001065
 6829 Fit       0.002252
 6830 Fit       0.000627
 6831 Fit      -0.001510
 6832 Fit      -0.002674
 6833 Fit      -0.004188
 6834 Fit      -0.000602
 6835 Fit       0.000749
 6836 Fit       0.001503
 6837 Fit       0.001461
 6838 Fit       0.000587
 6839 Fit      -0.000925
 6840 Fit      -0.002073
 6841 Fit      -0.000020
 6842 Fit       0.000130
 6843 Fit      -0.000697
 6844 Fit       0.010198
 6845 Fit       0.006720
 6846 Fit       0.004666
 6847 Fit       0.004855
 6848 Fit       0.002043
 6849 Fit       0.017639
 6850 Fit       0.013380
 6851 Fit       0.014291
 6852 Fit       0.015599
 6853 Fit       0.017161
 6854 Fit       0.009043
 6855 Fit       0.009672
 6856 Fit       0.010748
 6857 Fit       0.012218
 6858 Fit       0.013973
 6859 Fit       0.015868
 6860 Fit       0.017747
 6861 Fit       0.019454
 6862 Fit       0.005300
 6863 Fit       0.005655
 6864 Fit       0.006430
 6865 Fit       0.007645
 6866 Fit       0.009262
 6867 Fit       0.011195
 6868 Fit       0.013336
 6869 Fit       0.015560
 6870 Fit       0.002069
 6871 Fit       0.002257
 6872 Fit       0.002772
 6873 Fit       0.003692
 6874 Fit       0.005040
 6875 Fit       0.006791
 6876 Fit       0.008893
 6877 Fit       0.011273
 6878 Fit      -0.000735
 6879 Fit      -0.000194
 6880 Fit       0.000665
 6881 Fit       0.001932
 6882 Fit       0.003633
 6883 Fit       0.005760
 6884 Fit      -0.003372
 6885 Fit      -0.002427
 6886 Fit      -0.001266
 6887 Fit       0.000267
 6888 Fit       0.002244
 6889 Fit      -0.005841
 6890 Fit      -0.004340
 6891 Fit      -0.002797
 6892 Fit      -0.000968
 6893 Fit       0.001281
 6894 Fit      -0.006764
 6895 Fit      -0.004708
 6896 Fit      -0.002601
 6897 Fit      -0.009557
 6898 Fit      -0.006684
 6899 Fit       0.021886
 6900 Fit       0.020431
 6901 Fit       0.019921
 6902 Fit       0.023450
 6903 Fit       0.022315
 6904 Fit       0.018607
 6905 Fit       0.017182
 6906 Fit       0.017420
 6907 Fit       0.024649
 6908 Fit       0.023908
 6909 Fit       0.022643
 6910 Fit       0.020756
 6911 Fit       0.016365
 6912 Fit       0.014285
 6913 Fit       0.013411
 6914 Fit       0.014185
 6915 Fit       0.024758
 6916 Fit       0.023986
 6917 Fit       0.022857
 6918 Fit       0.021163
 6919 Fit       0.018889
 6920 Fit       0.013611
 6921 Fit       0.010778
 6922 Fit       0.009004
 6923 Fit       0.025182
 6924 Fit       0.024640
 6925 Fit       0.024048
 6926 Fit       0.023150
 6927 Fit       0.021716
 6928 Fit       0.019585
 6929 Fit       0.016770
 6930 Fit       0.010182
 6931 Fit       0.006353
 6932 Fit       0.024621
 6933 Fit       0.024301
 6934 Fit       0.023972
 6935 Fit       0.023394
 6936 Fit       0.022338
 6937 Fit       0.020570
 6938 Fit       0.017895
 6939 Fit       0.014302
 6940 Fit       0.023875
 6941 Fit       0.023611
 6942 Fit       0.023582
 6943 Fit       0.023550
 6944 Fit       0.023319
 6945 Fit       0.022693
 6946 Fit       0.021435
 6947 Fit       0.019260
 6948 Fit       0.015889
 6949 Fit       0.022200
 6950 Fit       0.022104
 6951 Fit       0.022338
 6952 Fit       0.022661
 6953 Fit       0.022887
 6954 Fit       0.022842
 6955 Fit       0.022315
 6956 Fit       0.021012
 6957 Fit       0.019683
 6958 Fit       0.019857
 6959 Fit       0.020393
 6960 Fit       0.021076
 6961 Fit       0.021742
 6962 Fit       0.022249
 6963 Fit       0.022441
 6964 Fit       0.022101
 6965 Fit       0.020872
 6966 Fit       0.017425
 6967 Fit       0.018480
 6968 Fit       0.019609
 6969 Fit       0.020683
 6970 Fit       0.021585
 6971 Fit       0.022181
 6972 Fit       0.022276
 -----------------------------------------------------------------
 Leave Link  602 at Wed Nov 29 20:17:26 2017, MaxMem=  2147483648 cpu:         1.1

 Test job not archived.
 1\1\GINC-LAC-347\FOpt\RHF\6-31G(d)\C10H13N1O1\ROOT\29-Nov-2017\0\\#HF/
 6-31G* SCF=tight Test Pop=MK iop(6/33=2) iop(6/42=6) opt\\remark line 
 goes here\\0,1\H,18.8073809957,-12.5582517877,20.0701905629\C,18.14850
 35015,-12.120355117,20.8062863194\H,18.6399606892,-11.2799430988,21.28
 27113922\H,17.938302587,-12.8696700079,21.5634002959\C,16.8508019447,-
 11.7312421128,20.1296651535\O,16.437108519,-12.3234551363,19.169355977
 3\H,10.546574175,-10.0515807261,24.3150535483\H,10.9282290258,-12.2025
 981219,23.3510577015\C,11.2825413089,-9.5199359163,23.7233833502\C,11.
 7165356297,-11.8049525483,22.7358060782\H,10.7625218705,-8.7504319247,
 23.1602992701\H,11.9605390549,-9.0191859759,24.408160034\H,12.14988855
 82,-13.6931621352,21.8315657413\C,12.0285595501,-10.4583631485,22.8028
 733336\C,12.4093848564,-12.6501425703,21.8761585467\C,13.0554294939,-9
 .976721988,21.9901766015\C,13.4209926787,-12.1593262375,21.0774228188\
 H,13.3051282996,-8.9286849475,22.0315119312\C,13.7548158055,-10.806226
 5819,21.1318523768\H,13.9531943439,-12.8113684879,20.4081441471\H,14.7
 572543369,-10.586295798,19.2456586716\H,14.8503066049,-9.1774223438,20
 .2742650633\C,14.8751891238,-10.2609875494,20.267827148\N,16.196082892
 6,-10.6881309868,20.6937978143\H,16.5317741538,-10.3385647513,21.56237
 61224\\Version=ES64L-G09RevD.01\State=1-A\HF=-515.5917495\RMSD=6.328e-
 09\RMSF=2.516e-06\Dipole=0.1794602,0.7867156,1.3033809\Quadrupole=4.77
 95618,1.5596631,-6.339225,2.2821102,2.4898836,-2.515725\PG=C01 [X(C10H
 13N1O1)]\\@


 ABOVE ALL I AM AN OPTIMIST FOR NUMBER THEORY,
 AND I HOLD THE HOPE THAT WE MAY NOT BE FAR FROM
 A TIME WHEN IRREFUTABLE ARITHMETIC WILL CELEBRATE
 ITS TRIUMPHS IN PHYSICS AND CHEMISTRY.
   -- HERMANN MINKOWSKI, 1905
 Job cpu time:       0 days  0 hours 14 minutes 38.5 seconds.
 File lengths (MBytes):  RWF=    134 Int=      0 D2E=      0 Chk=      5 Scr=      2
 Normal termination of Gaussian 09 at Wed Nov 29 20:17:26 2017.
