 Entering Gaussian System, Link 0=g09
 Initial command:
 /opt/software/Gaussian/g09/l1.exe "/mnt/ls15/scratch/users/songlin3/Gau-2603.inp" -scrdir="/mnt/ls15/scratch/users/songlin3/"
 Entering Link 1 = /opt/software/Gaussian/g09/l1.exe PID=      2604.
  
 Copyright (c) 1988,1990,1992,1993,1995,1998,2003,2009,2013,
            Gaussian, Inc.  All Rights Reserved.
  
 This is part of the Gaussian(R) 09 program.  It is based on
 the Gaussian(R) 03 system (copyright 2003, Gaussian, Inc.),
 the Gaussian(R) 98 system (copyright 1998, Gaussian, Inc.),
 the Gaussian(R) 94 system (copyright 1995, Gaussian, Inc.),
 the Gaussian 92(TM) system (copyright 1992, Gaussian, Inc.),
 the Gaussian 90(TM) system (copyright 1990, Gaussian, Inc.),
 the Gaussian 88(TM) system (copyright 1988, Gaussian, Inc.),
 the Gaussian 86(TM) system (copyright 1986, Carnegie Mellon
 University), and the Gaussian 82(TM) system (copyright 1983,
 Carnegie Mellon University). Gaussian is a federally registered
 trademark of Gaussian, Inc.
  
 This software contains proprietary and confidential information,
 including trade secrets, belonging to Gaussian, Inc.
  
 This software is provided under written license and may be
 used, copied, transmitted, or stored only in accord with that
 written license.
  
 The following legend is applicable only to US Government
 contracts under FAR:
  
                    RESTRICTED RIGHTS LEGEND
  
 Use, reproduction and disclosure by the US Government is
 subject to restrictions as set forth in subparagraphs (a)
 and (c) of the Commercial Computer Software - Restricted
 Rights clause in FAR 52.227-19.
  
 Gaussian, Inc.
 340 Quinnipiac St., Bldg. 40, Wallingford CT 06492
  
  
 ---------------------------------------------------------------
 Warning -- This program may not be used in any manner that
 competes with the business of Gaussian, Inc. or will provide
 assistance to any competitor of Gaussian, Inc.  The licensee
 of this program is prohibited from giving any competitor of
 Gaussian, Inc. access to this program.  By using this program,
 the user acknowledges that Gaussian, Inc. is engaged in the
 business of creating and licensing software in the field of
 computational chemistry and represents and warrants to the
 licensee that it is not a competitor of Gaussian, Inc. and that
 it will not use this program in any manner prohibited above.
 ---------------------------------------------------------------
  

 Cite this work as:
 Gaussian 09, Revision D.01,
 M. J. Frisch, G. W. Trucks, H. B. Schlegel, G. E. Scuseria, 
 M. A. Robb, J. R. Cheeseman, G. Scalmani, V. Barone, B. Mennucci, 
 G. A. Petersson, H. Nakatsuji, M. Caricato, X. Li, H. P. Hratchian, 
 A. F. Izmaylov, J. Bloino, G. Zheng, J. L. Sonnenberg, M. Hada, 
 M. Ehara, K. Toyota, R. Fukuda, J. Hasegawa, M. Ishida, T. Nakajima, 
 Y. Honda, O. Kitao, H. Nakai, T. Vreven, J. A. Montgomery, Jr., 
 J. E. Peralta, F. Ogliaro, M. Bearpark, J. J. Heyd, E. Brothers, 
 K. N. Kudin, V. N. Staroverov, T. Keith, R. Kobayashi, J. Normand, 
 K. Raghavachari, A. Rendell, J. C. Burant, S. S. Iyengar, J. Tomasi, 
 M. Cossi, N. Rega, J. M. Millam, M. Klene, J. E. Knox, J. B. Cross, 
 V. Bakken, C. Adamo, J. Jaramillo, R. Gomperts, R. E. Stratmann, 
 O. Yazyev, A. J. Austin, R. Cammi, C. Pomelli, J. W. Ochterski, 
 R. L. Martin, K. Morokuma, V. G. Zakrzewski, G. A. Voth, 
 P. Salvador, J. J. Dannenberg, S. Dapprich, A. D. Daniels, 
 O. Farkas, J. B. Foresman, J. V. Ortiz, J. Cioslowski, 
 and D. J. Fox, Gaussian, Inc., Wallingford CT, 2013.
 
 ******************************************
 Gaussian 09:  ES64L-G09RevD.01 24-Apr-2013
                29-Nov-2017 
 ******************************************
 %RWF=myrwf
 %NoSave
 %chk=esp.chk
 %NprocShared=4
 Will use up to    4 processors via shared memory.
 %Mem=16GB
 ----------------------------------------------------------------------
 #HF/6-31G* SCF=tight Test Pop=MK iop(6/33=2) iop(6/42=6) opt # iop(6/5
 0=1)
 ----------------------------------------------------------------------
 1/18=20,19=15,38=1/1,3;
 2/9=110,12=2,17=6,18=5,40=1/2;
 3/5=1,6=6,7=1,11=9,16=1,25=1,30=1,71=1/1,2,3;
 4//1;
 5/5=2,32=2,38=5/2;
 6/7=2,8=2,9=2,10=2,15=8,20=1,28=1,33=2,42=6,50=1/1,2;
 7//1,2,3,16;
 1/18=20,19=15/3(2);
 2/9=110/2;
 99//99;
 2/9=110/2;
 3/5=1,6=6,7=1,11=9,16=1,25=1,30=1,71=1/1,2,3;
 4/5=5,16=3,69=1/1;
 5/5=2,32=2,38=5/2;
 7//1,2,3,16;
 1/18=20,19=15/3(-5);
 2/9=110/2;
 6/7=2,8=2,9=2,10=2,15=8,19=2,20=1,28=1,33=2,42=6,50=1/1,2;
 99/9=1/99;
 ---------------------
 remark line goes here
 ---------------------
 Symbolic Z-matrix:
 Charge =  0 Multiplicity = 1
 H                    -4.76064   0.24969   1.01198 
 C                    -3.79051  -0.14824   1.27296 
 H                    -3.89352  -1.1753    1.6034 
 H                    -3.39169   0.43874   2.09467 
 C                    -2.86924  -0.00858   0.07993 
 O                    -3.00535   0.87216  -0.72594 
 H                     3.6682    1.5078    0.72514 
 C                     2.76064   1.05082   0.37812 
 F                     3.78243  -1.04455   0.4651 
 H                     1.64587   2.8619    0.21953 
 C                     2.70387  -0.31086   0.19941 
 C                     1.62365   1.79452   0.09295 
 C                     1.56472  -0.95062  -0.24703 
 C                     0.46913   1.1799   -0.35612 
 H                     1.58176  -2.01811  -0.37294 
 H                    -0.40521   1.7639   -0.57784 
 C                     0.43181  -0.20233  -0.52779 
 H                    -1.24482  -0.35827  -1.8564 
 H                    -0.61591  -1.89625  -1.31621 
 C                    -0.83735  -0.88214  -1.00561 
 N                    -1.88158  -0.93326   0.00024 
 H                    -1.75228  -1.55235   0.7678 
 

 GradGradGradGradGradGradGradGradGradGradGradGradGradGradGradGradGradGrad
 Berny optimization.
 Initialization pass.
                           ----------------------------
                           !    Initial Parameters    !
                           ! (Angstroms and Degrees)  !
 --------------------------                            --------------------------
 ! Name  Definition              Value          Derivative Info.                !
 --------------------------------------------------------------------------------
 ! R1    R(1,2)                  1.0806         estimate D2E/DX2                !
 ! R2    R(2,3)                  1.0838         estimate D2E/DX2                !
 ! R3    R(2,4)                  1.0857         estimate D2E/DX2                !
 ! R4    R(2,5)                  1.5138         estimate D2E/DX2                !
 ! R5    R(5,6)                  1.2015         estimate D2E/DX2                !
 ! R6    R(5,21)                 1.3553         estimate D2E/DX2                !
 ! R7    R(7,8)                  1.0737         estimate D2E/DX2                !
 ! R8    R(8,11)                 1.3745         estimate D2E/DX2                !
 ! R9    R(8,12)                 1.3882         estimate D2E/DX2                !
 ! R10   R(9,11)                 1.3312         estimate D2E/DX2                !
 ! R11   R(10,12)                1.0751         estimate D2E/DX2                !
 ! R12   R(11,13)                1.3807         estimate D2E/DX2                !
 ! R13   R(12,14)                1.3829         estimate D2E/DX2                !
 ! R14   R(13,15)                1.075          estimate D2E/DX2                !
 ! R15   R(13,17)                1.3864         estimate D2E/DX2                !
 ! R16   R(14,16)                1.0746         estimate D2E/DX2                !
 ! R17   R(14,17)                1.3933         estimate D2E/DX2                !
 ! R18   R(17,20)                1.517          estimate D2E/DX2                !
 ! R19   R(18,20)                1.079          estimate D2E/DX2                !
 ! R20   R(19,20)                1.0835         estimate D2E/DX2                !
 ! R21   R(20,21)                1.4508         estimate D2E/DX2                !
 ! R22   R(21,22)                0.9946         estimate D2E/DX2                !
 ! A1    A(1,2,3)              109.7111         estimate D2E/DX2                !
 ! A2    A(1,2,4)              108.2697         estimate D2E/DX2                !
 ! A3    A(1,2,5)              108.7881         estimate D2E/DX2                !
 ! A4    A(3,2,4)              108.4504         estimate D2E/DX2                !
 ! A5    A(3,2,5)              112.678          estimate D2E/DX2                !
 ! A6    A(4,2,5)              108.8468         estimate D2E/DX2                !
 ! A7    A(2,5,6)              121.8215         estimate D2E/DX2                !
 ! A8    A(2,5,21)             115.2706         estimate D2E/DX2                !
 ! A9    A(6,5,21)             122.9038         estimate D2E/DX2                !
 ! A10   A(7,8,11)             119.9035         estimate D2E/DX2                !
 ! A11   A(7,8,12)             122.0502         estimate D2E/DX2                !
 ! A12   A(11,8,12)            118.0458         estimate D2E/DX2                !
 ! A13   A(8,11,9)             119.1158         estimate D2E/DX2                !
 ! A14   A(8,11,13)            122.3541         estimate D2E/DX2                !
 ! A15   A(9,11,13)            118.5301         estimate D2E/DX2                !
 ! A16   A(8,12,10)            119.3906         estimate D2E/DX2                !
 ! A17   A(8,12,14)            120.8232         estimate D2E/DX2                !
 ! A18   A(10,12,14)           119.7856         estimate D2E/DX2                !
 ! A19   A(11,13,15)           119.0066         estimate D2E/DX2                !
 ! A20   A(11,13,17)           119.3128         estimate D2E/DX2                !
 ! A21   A(15,13,17)           121.6797         estimate D2E/DX2                !
 ! A22   A(12,14,16)           120.3156         estimate D2E/DX2                !
 ! A23   A(12,14,17)           120.2167         estimate D2E/DX2                !
 ! A24   A(16,14,17)           119.4675         estimate D2E/DX2                !
 ! A25   A(13,17,14)           119.2471         estimate D2E/DX2                !
 ! A26   A(13,17,20)           120.3686         estimate D2E/DX2                !
 ! A27   A(14,17,20)           120.3824         estimate D2E/DX2                !
 ! A28   A(17,20,18)           110.287          estimate D2E/DX2                !
 ! A29   A(17,20,19)           109.8007         estimate D2E/DX2                !
 ! A30   A(17,20,21)           113.553          estimate D2E/DX2                !
 ! A31   A(18,20,19)           107.7918         estimate D2E/DX2                !
 ! A32   A(18,20,21)           106.9759         estimate D2E/DX2                !
 ! A33   A(19,20,21)           108.2324         estimate D2E/DX2                !
 ! A34   A(5,21,20)            122.7685         estimate D2E/DX2                !
 ! A35   A(5,21,22)            118.2981         estimate D2E/DX2                !
 ! A36   A(20,21,22)           117.6091         estimate D2E/DX2                !
 ! D1    D(1,2,5,6)             29.0163         estimate D2E/DX2                !
 ! D2    D(1,2,5,21)          -151.7045         estimate D2E/DX2                !
 ! D3    D(3,2,5,6)            150.9047         estimate D2E/DX2                !
 ! D4    D(3,2,5,21)           -29.8161         estimate D2E/DX2                !
 ! D5    D(4,2,5,6)            -88.7597         estimate D2E/DX2                !
 ! D6    D(4,2,5,21)            90.5196         estimate D2E/DX2                !
 ! D7    D(2,5,21,20)         -174.3081         estimate D2E/DX2                !
 ! D8    D(2,5,21,22)           -7.7746         estimate D2E/DX2                !
 ! D9    D(6,5,21,20)            4.9624         estimate D2E/DX2                !
 ! D10   D(6,5,21,22)          171.4959         estimate D2E/DX2                !
 ! D11   D(7,8,11,9)             0.1709         estimate D2E/DX2                !
 ! D12   D(7,8,11,13)         -179.857          estimate D2E/DX2                !
 ! D13   D(12,8,11,9)          179.9297         estimate D2E/DX2                !
 ! D14   D(12,8,11,13)          -0.0982         estimate D2E/DX2                !
 ! D15   D(7,8,12,10)            0.1118         estimate D2E/DX2                !
 ! D16   D(7,8,12,14)          179.8247         estimate D2E/DX2                !
 ! D17   D(11,8,12,10)        -179.6415         estimate D2E/DX2                !
 ! D18   D(11,8,12,14)           0.0713         estimate D2E/DX2                !
 ! D19   D(8,11,13,15)         179.6622         estimate D2E/DX2                !
 ! D20   D(8,11,13,17)          -0.0142         estimate D2E/DX2                !
 ! D21   D(9,11,13,15)          -0.3655         estimate D2E/DX2                !
 ! D22   D(9,11,13,17)         179.958          estimate D2E/DX2                !
 ! D23   D(8,12,14,16)        -179.7763         estimate D2E/DX2                !
 ! D24   D(8,12,14,17)           0.0664         estimate D2E/DX2                !
 ! D25   D(10,12,14,16)         -0.0645         estimate D2E/DX2                !
 ! D26   D(10,12,14,17)        179.7782         estimate D2E/DX2                !
 ! D27   D(11,13,17,14)          0.153          estimate D2E/DX2                !
 ! D28   D(11,13,17,20)       -179.3514         estimate D2E/DX2                !
 ! D29   D(15,13,17,14)       -179.5145         estimate D2E/DX2                !
 ! D30   D(15,13,17,20)          0.981          estimate D2E/DX2                !
 ! D31   D(12,14,17,13)         -0.1793         estimate D2E/DX2                !
 ! D32   D(12,14,17,20)        179.3251         estimate D2E/DX2                !
 ! D33   D(16,14,17,13)        179.6647         estimate D2E/DX2                !
 ! D34   D(16,14,17,20)         -0.8308         estimate D2E/DX2                !
 ! D35   D(13,17,20,18)       -133.2967         estimate D2E/DX2                !
 ! D36   D(13,17,20,19)        -14.6552         estimate D2E/DX2                !
 ! D37   D(13,17,20,21)        106.6567         estimate D2E/DX2                !
 ! D38   D(14,17,20,18)         47.2045         estimate D2E/DX2                !
 ! D39   D(14,17,20,19)        165.8459         estimate D2E/DX2                !
 ! D40   D(14,17,20,21)        -72.8421         estimate D2E/DX2                !
 ! D41   D(17,20,21,5)          95.1466         estimate D2E/DX2                !
 ! D42   D(17,20,21,22)        -71.4741         estimate D2E/DX2                !
 ! D43   D(18,20,21,5)         -26.76           estimate D2E/DX2                !
 ! D44   D(18,20,21,22)        166.6193         estimate D2E/DX2                !
 ! D45   D(19,20,21,5)        -142.6679         estimate D2E/DX2                !
 ! D46   D(19,20,21,22)         50.7113         estimate D2E/DX2                !
 --------------------------------------------------------------------------------
 Trust Radius=3.00D-01 FncErr=1.00D-07 GrdErr=1.00D-07
 Number of steps in this run=    114 maximum allowed number of steps=    132.
 GradGradGradGradGradGradGradGradGradGradGradGradGradGradGradGradGradGrad

                          Input orientation:                          
 ---------------------------------------------------------------------
 Center     Atomic      Atomic             Coordinates (Angstroms)
 Number     Number       Type             X           Y           Z
 ---------------------------------------------------------------------
      1          1           0       -4.760639    0.249687    1.011976
      2          6           0       -3.790510   -0.148237    1.272955
      3          1           0       -3.893524   -1.175300    1.603397
      4          1           0       -3.391690    0.438740    2.094669
      5          6           0       -2.869243   -0.008584    0.079925
      6          8           0       -3.005345    0.872158   -0.725936
      7          1           0        3.668200    1.507799    0.725138
      8          6           0        2.760635    1.050821    0.378122
      9          9           0        3.782425   -1.044550    0.465099
     10          1           0        1.645871    2.861899    0.219530
     11          6           0        2.703869   -0.310859    0.199409
     12          6           0        1.623648    1.794515    0.092947
     13          6           0        1.564716   -0.950620   -0.247028
     14          6           0        0.469127    1.179896   -0.356122
     15          1           0        1.581760   -2.018106   -0.372942
     16          1           0       -0.405210    1.763900   -0.577844
     17          6           0        0.431812   -0.202331   -0.527791
     18          1           0       -1.244817   -0.358269   -1.856404
     19          1           0       -0.615912   -1.896252   -1.316214
     20          6           0       -0.837349   -0.882137   -1.005613
     21          7           0       -1.881580   -0.933261    0.000238
     22          1           0       -1.752280   -1.552353    0.767803
 ---------------------------------------------------------------------
                    Distance matrix (angstroms):
                    1          2          3          4          5
     1  H    0.000000
     2  C    1.080557   0.000000
     3  H    1.769818   1.083818   0.000000
     4  H    1.755559   1.085732   1.760202   0.000000
     5  C    2.124336   1.513789   2.175165   2.128907   0.000000
     6  O    2.547325   2.377658   3.225948   2.879744   1.201517
     7  H    8.527042   7.659955   8.071557   7.270526   6.741949
     8  C    7.590333   6.719819   7.122833   6.416563   5.736444
     9  F    8.657833   7.668465   7.760993   7.504903   6.742868
    10  H    6.963835   6.302766   6.992779   5.896174   5.352141
    11  C    7.529499   6.584520   6.800297   6.427266   5.582582
    12  C    6.632513   5.871951   6.445188   5.567642   4.841219
    13  C    6.560179   5.624288   5.767750   5.655071   4.544703
    14  C    5.485201   4.749983   5.330984   4.632666   3.570341
    15  H    6.876548   5.921712   5.881749   6.071277   4.904559
    16  H    4.877513   4.306040   5.056189   4.221071   3.105772
    17  C    5.434772   4.590601   4.919061   4.680538   3.362116
    18  H    4.578015   4.039499   4.433217   4.566756   2.551550
    19  H    5.215773   4.453922   4.448218   4.979082   3.254227
    20  C    4.554547   3.801531   4.029030   4.228608   2.463753
    21  N    3.272913   2.424889   2.583916   2.923946   1.355307
    22  H    3.515280   2.526084   2.329230   2.900464   2.025834
                    6          7          8          9         10
     6  O    0.000000
     7  H    6.858998   0.000000
     8  C    5.873448   1.073743   0.000000
     9  F    7.153052   2.568103   2.332852   0.000000
    10  H    5.146531   2.485768   2.132570   4.459317   0.000000
    11  C    5.903467   2.124580   1.374530   1.331231   3.344571
    12  C    4.790500   2.159181   1.388216   3.585959   1.075093
    13  C    4.943413   3.378398   2.413877   2.331133   3.841818
    14  C    3.507623   3.392744   2.409727   4.074372   2.131956
    15  H    5.433209   4.241582   3.372263   2.548146   4.916257
    16  H    2.752787   4.284392   3.383035   5.148923   2.459337
    17  C    3.606638   3.868925   2.795440   3.594686   3.379635
    18  H    2.427214   5.855280   4.798155   5.579742   4.799485
    19  H    3.704310   5.840231   4.791355   4.821187   5.487638
    20  C    2.802852   5.385839   4.312370   4.850947   4.656733
    21  N    2.247157   6.106088   5.062562   5.684139   5.185966
    22  H    3.111219   6.224785   5.224439   5.566188   5.597647
                   11         12         13         14         15
    11  C    0.000000
    12  C    2.368715   0.000000
    13  C    1.380677   2.766735   0.000000
    14  C    2.743180   1.382873   2.398190   0.000000
    15  H    2.121652   3.841209   1.075021   3.386067   0.000000
    16  H    3.817737   2.137092   3.370262   1.074563   4.277102
    17  C    2.388062   2.406903   1.386447   1.393346   2.154854
    18  H    4.452049   4.081977   3.291572   2.748527   3.597952
    19  H    3.978886   4.541269   2.606246   3.400261   2.394655
    20  C    3.784001   3.798395   2.519932   2.526004   2.746413
    21  N    4.631781   4.442520   3.455199   3.180919   3.648407
    22  H    4.660648   4.801442   3.520572   3.696355   3.554441
                   16         17         18         19         20
    16  H    0.000000
    17  C    2.137563   0.000000
    18  H    2.615962   2.144904   0.000000
    19  H    3.739826   2.142126   1.747203   0.000000
    20  C    2.715003   1.516977   1.079033   1.083484   0.000000
    21  N    3.128662   2.482913   2.045288   2.064537   1.450782
    22  H    3.823990   2.876001   2.927425   2.398484   2.105064
                   21         22
    21  N    0.000000
    22  H    0.994560   0.000000
 Stoichiometry    C9H10FNO
 Framework group  C1[X(C9H10FNO)]
 Deg. of freedom    60
 Full point group                 C1      NOp   1
 Largest Abelian subgroup         C1      NOp   1
 Largest concise Abelian subgroup C1      NOp   1
                         Standard orientation:                         
 ---------------------------------------------------------------------
 Center     Atomic      Atomic             Coordinates (Angstroms)
 Number     Number       Type             X           Y           Z
 ---------------------------------------------------------------------
      1          1           0       -4.760639    0.249687    1.011976
      2          6           0       -3.790510   -0.148237    1.272955
      3          1           0       -3.893524   -1.175300    1.603397
      4          1           0       -3.391690    0.438740    2.094669
      5          6           0       -2.869243   -0.008584    0.079925
      6          8           0       -3.005345    0.872158   -0.725936
      7          1           0        3.668200    1.507799    0.725138
      8          6           0        2.760635    1.050821    0.378122
      9          9           0        3.782425   -1.044550    0.465099
     10          1           0        1.645871    2.861899    0.219530
     11          6           0        2.703869   -0.310859    0.199409
     12          6           0        1.623648    1.794515    0.092947
     13          6           0        1.564716   -0.950620   -0.247028
     14          6           0        0.469127    1.179896   -0.356122
     15          1           0        1.581760   -2.018106   -0.372942
     16          1           0       -0.405210    1.763900   -0.577844
     17          6           0        0.431812   -0.202331   -0.527791
     18          1           0       -1.244817   -0.358269   -1.856404
     19          1           0       -0.615912   -1.896252   -1.316214
     20          6           0       -0.837349   -0.882137   -1.005613
     21          7           0       -1.881580   -0.933261    0.000238
     22          1           0       -1.752280   -1.552353    0.767803
 ---------------------------------------------------------------------
 Rotational constants (GHZ):      2.2180687      0.4470515      0.4125490
 Standard basis: 6-31G(d) (6D, 7F)
 There are   200 symmetry adapted cartesian basis functions of A   symmetry.
 There are   200 symmetry adapted basis functions of A   symmetry.
   200 basis functions,   376 primitive gaussians,   200 cartesian basis functions
    44 alpha electrons       44 beta electrons
       nuclear repulsion energy       665.7063658250 Hartrees.
 NAtoms=   22 NActive=   22 NUniq=   22 SFac= 1.00D+00 NAtFMM=   60 NAOKFM=F Big=F
 Integral buffers will be    131072 words long.
 Raffenetti 1 integral format.
 Two-electron integral symmetry is turned on.
 One-electron integrals computed using PRISM.
 NBasis=   200 RedAO= T EigKep=  4.29D-04  NBF=   200
 NBsUse=   200 1.00D-06 EigRej= -1.00D+00 NBFU=   200
 ExpMin= 1.61D-01 ExpMax= 7.00D+03 ExpMxC= 1.05D+03 IAcc=1 IRadAn=         1 AccDes= 0.00D+00
 Harris functional with IExCor=  205 and IRadAn=       1 diagonalized for initial guess.
 HarFok:  IExCor=  205 AccDes= 0.00D+00 IRadAn=         1 IDoV= 1 UseB2=F ITyADJ=14
 ICtDFT=  3500011 ScaDFX=  1.000000  1.000000  1.000000  1.000000
 FoFCou: FMM=F IPFlag=           0 FMFlag=      100000 FMFlg1=           0
         NFxFlg=           0 DoJE=T BraDBF=F KetDBF=T FulRan=T
         wScrn=  0.000000 ICntrl=     500 IOpCl=  0 I1Cent=   200000004 NGrid=           0
         NMat0=    1 NMatS0=      1 NMatT0=    0 NMatD0=    1 NMtDS0=    0 NMtDT0=    0
 Petite list used in FoFCou.
 Keep R1 ints in memory in canonical form, NReq=206216512.
 Requested convergence on RMS density matrix=1.00D-08 within 128 cycles.
 Requested convergence on MAX density matrix=1.00D-06.
 Requested convergence on             energy=1.00D-06.
 No special actions if energy rises.
 SCF Done:  E(RHF) =  -575.406265289     A.U. after   15 cycles
            NFock= 15  Conv=0.51D-08     -V/T= 2.0013

 **********************************************************************

            Population analysis using the SCF density.

 **********************************************************************

 Orbital symmetries:
 BldTbl:  Degeneracy threshold= 1.00D-02
       Occupied  (A) (A) (A) (A) (A) (A) (A) (A) (A) (A) (A) (A)
                 (A) (A) (A) (A) (A) (A) (A) (A) (A) (A) (A) (A)
                 (A) (A) (A) (A) (A) (A) (A) (A) (A) (A) (A) (A)
                 (A) (A) (A) (A) (A) (A) (A) (A)
       Virtual   (A) (A) (A) (A) (A) (A) (A) (A) (A) (A) (A) (A)
                 (A) (A) (A) (A) (A) (A) (A) (A) (A) (A) (A) (A)
                 (A) (A) (A) (A) (A) (A) (A) (A) (A) (A) (A) (A)
                 (A) (A) (A) (A) (A) (A) (A) (A) (A) (A) (A) (A)
                 (A) (A) (A) (A) (A) (A) (A) (A) (A) (A) (A) (A)
                 (A) (A) (A) (A) (A) (A) (A) (A) (A) (A) (A) (A)
                 (A) (A) (A) (A) (A) (A) (A) (A) (A) (A) (A) (A)
                 (A) (A) (A) (A) (A) (A) (A) (A) (A) (A) (A) (A)
                 (A) (A) (A) (A) (A) (A) (A) (A) (A) (A) (A) (A)
                 (A) (A) (A) (A) (A) (A) (A) (A) (A) (A) (A) (A)
                 (A) (A) (A) (A) (A) (A) (A) (A) (A) (A) (A) (A)
                 (A) (A) (A) (A) (A) (A) (A) (A) (A) (A) (A) (A)
                 (A) (A) (A) (A) (A) (A) (A) (A) (A) (A) (A) (A)
 The electronic state is 1-A.
 Alpha  occ. eigenvalues --  -26.30896 -20.52413 -15.58961 -11.35139 -11.32453
 Alpha  occ. eigenvalues --  -11.27274 -11.25141 -11.24469 -11.23852 -11.23677
 Alpha  occ. eigenvalues --  -11.23524 -11.22998  -1.62644  -1.39264  -1.24079
 Alpha  occ. eigenvalues --   -1.16633  -1.05751  -1.02362  -1.00896  -0.93757
 Alpha  occ. eigenvalues --   -0.84808  -0.83075  -0.79427  -0.73824  -0.70274
 Alpha  occ. eigenvalues --   -0.69043  -0.68959  -0.68221  -0.65830  -0.63526
 Alpha  occ. eigenvalues --   -0.61427  -0.60054  -0.59217  -0.58309  -0.56413
 Alpha  occ. eigenvalues --   -0.54877  -0.52717  -0.51926  -0.50099  -0.49743
 Alpha  occ. eigenvalues --   -0.42250  -0.39481  -0.34567  -0.33099
 Alpha virt. eigenvalues --    0.13086   0.14576   0.20125   0.21665   0.24479
 Alpha virt. eigenvalues --    0.26232   0.28505   0.29933   0.30641   0.31608
 Alpha virt. eigenvalues --    0.32578   0.33844   0.34488   0.36067   0.37840
 Alpha virt. eigenvalues --    0.39975   0.42526   0.43866   0.46395   0.48038
 Alpha virt. eigenvalues --    0.52659   0.53885   0.58450   0.59945   0.63293
 Alpha virt. eigenvalues --    0.70424   0.72866   0.73089   0.73524   0.74621
 Alpha virt. eigenvalues --    0.76492   0.77150   0.80747   0.81727   0.82206
 Alpha virt. eigenvalues --    0.82707   0.83296   0.84780   0.86616   0.87907
 Alpha virt. eigenvalues --    0.88726   0.89270   0.92427   0.95583   0.96589
 Alpha virt. eigenvalues --    0.98614   1.00100   1.01853   1.05204   1.06936
 Alpha virt. eigenvalues --    1.08554   1.10372   1.12283   1.12416   1.14309
 Alpha virt. eigenvalues --    1.14971   1.17046   1.17690   1.18018   1.19558
 Alpha virt. eigenvalues --    1.20129   1.20661   1.22071   1.23208   1.25189
 Alpha virt. eigenvalues --    1.31536   1.35048   1.37344   1.39984   1.43384
 Alpha virt. eigenvalues --    1.44258   1.46499   1.48616   1.49849   1.52718
 Alpha virt. eigenvalues --    1.55316   1.59099   1.61757   1.66439   1.67591
 Alpha virt. eigenvalues --    1.70403   1.70802   1.72583   1.73565   1.75424
 Alpha virt. eigenvalues --    1.76318   1.77392   1.81080   1.84442   1.93653
 Alpha virt. eigenvalues --    2.00582   2.03777   2.06914   2.09288   2.10318
 Alpha virt. eigenvalues --    2.11613   2.12161   2.13396   2.16412   2.19092
 Alpha virt. eigenvalues --    2.21164   2.23984   2.24931   2.25424   2.29325
 Alpha virt. eigenvalues --    2.29654   2.31243   2.32470   2.38385   2.39487
 Alpha virt. eigenvalues --    2.41933   2.44378   2.48250   2.51354   2.52612
 Alpha virt. eigenvalues --    2.53766   2.56160   2.59236   2.60702   2.65509
 Alpha virt. eigenvalues --    2.66784   2.68385   2.72526   2.76036   2.76892
 Alpha virt. eigenvalues --    2.80585   2.87512   2.89291   2.93229   2.94049
 Alpha virt. eigenvalues --    3.00661   3.05140   3.06126   3.06414   3.11762
 Alpha virt. eigenvalues --    3.14858   3.19791   3.27104   3.31411   3.38273
 Alpha virt. eigenvalues --    3.49015   3.54164   3.56071   3.82596   4.39161
 Alpha virt. eigenvalues --    4.48109   4.51028   4.53342   4.57490   4.63994
 Alpha virt. eigenvalues --    4.74102   4.76405   4.83437   4.92686   5.10595
 Alpha virt. eigenvalues --    5.78787
          Condensed to atoms (all electrons):
               1          2          3          4          5          6
     1  H    0.464365   0.384160  -0.021430  -0.017876  -0.030827   0.002874
     2  C    0.384160   5.259055   0.375198   0.376955   0.372456  -0.071007
     3  H   -0.021430   0.375198   0.525337  -0.024129  -0.037532   0.002352
     4  H   -0.017876   0.376955  -0.024129   0.490667  -0.027213   0.000046
     5  C   -0.030827   0.372456  -0.037532  -0.027213   4.139966   0.599464
     6  O    0.002874  -0.071007   0.002352   0.000046   0.599464   8.165822
     7  H    0.000000   0.000000   0.000000   0.000000   0.000000   0.000000
     8  C    0.000000   0.000000   0.000000   0.000000  -0.000001   0.000000
     9  F    0.000000   0.000000   0.000000   0.000000   0.000000   0.000000
    10  H    0.000000   0.000000   0.000000   0.000000   0.000001  -0.000002
    11  C    0.000000   0.000000   0.000000   0.000000  -0.000002   0.000000
    12  C    0.000000   0.000002   0.000000  -0.000001   0.000057   0.000084
    13  C    0.000000  -0.000009   0.000001   0.000001  -0.000081  -0.000033
    14  C    0.000001  -0.000024  -0.000003   0.000030   0.002163  -0.001433
    15  H    0.000000   0.000000   0.000000   0.000000   0.000000   0.000000
    16  H   -0.000002   0.000158  -0.000002  -0.000029   0.000954   0.007537
    17  C   -0.000002  -0.000426   0.000009   0.000082  -0.001760  -0.002587
    18  H    0.000004   0.000372  -0.000028  -0.000009  -0.001081   0.007165
    19  H    0.000003  -0.000012  -0.000023  -0.000002   0.002275   0.000392
    20  C   -0.000106   0.004594  -0.000001  -0.000200  -0.022332   0.004756
    21  N    0.003740  -0.117180   0.005609   0.000471   0.270380  -0.104134
    22  H    0.000048  -0.000021   0.000530   0.000026  -0.017888   0.002418
               7          8          9         10         11         12
     1  H    0.000000   0.000000   0.000000   0.000000   0.000000   0.000000
     2  C    0.000000   0.000000   0.000000   0.000000   0.000000   0.000002
     3  H    0.000000   0.000000   0.000000   0.000000   0.000000   0.000000
     4  H    0.000000   0.000000   0.000000   0.000000   0.000000  -0.000001
     5  C    0.000000  -0.000001   0.000000   0.000001  -0.000002   0.000057
     6  O    0.000000   0.000000   0.000000  -0.000002   0.000000   0.000084
     7  H    0.451481   0.377057  -0.000545  -0.001772  -0.027190  -0.027548
     8  C    0.377057   5.052899  -0.034921  -0.027414   0.571876   0.497428
     9  F   -0.000545  -0.034921   9.206019  -0.000020   0.248414   0.002641
    10  H   -0.001772  -0.027414  -0.000020   0.458096   0.001267   0.381657
    11  C   -0.027190   0.571876   0.248414   0.001267   4.293155  -0.034827
    12  C   -0.027548   0.497428   0.002641   0.381657  -0.034827   4.917078
    13  C    0.003834  -0.080106  -0.032400   0.000248   0.556142  -0.029480
    14  C    0.002396  -0.051154   0.000070  -0.026936  -0.030236   0.545218
    15  H   -0.000097   0.003888  -0.000421   0.000010  -0.025089  -0.000199
    16  H   -0.000083   0.002154   0.000000  -0.001312   0.000313  -0.025817
    17  C   -0.000075  -0.025041   0.002891   0.002254  -0.035859  -0.042702
    18  H    0.000000   0.000001   0.000000  -0.000001  -0.000014   0.000044
    19  H    0.000000  -0.000018   0.000001   0.000002   0.000244  -0.000035
    20  C    0.000006   0.000257  -0.000024  -0.000118   0.001462   0.002330
    21  N    0.000000   0.000005   0.000000   0.000005   0.000025  -0.000035
    22  H    0.000000  -0.000005   0.000000   0.000000   0.000007  -0.000007
              13         14         15         16         17         18
     1  H    0.000000   0.000001   0.000000  -0.000002  -0.000002   0.000004
     2  C   -0.000009  -0.000024   0.000000   0.000158  -0.000426   0.000372
     3  H    0.000001  -0.000003   0.000000  -0.000002   0.000009  -0.000028
     4  H    0.000001   0.000030   0.000000  -0.000029   0.000082  -0.000009
     5  C   -0.000081   0.002163   0.000000   0.000954  -0.001760  -0.001081
     6  O   -0.000033  -0.001433   0.000000   0.007537  -0.002587   0.007165
     7  H    0.003834   0.002396  -0.000097  -0.000083  -0.000075   0.000000
     8  C   -0.080106  -0.051154   0.003888   0.002154  -0.025041   0.000001
     9  F   -0.032400   0.000070  -0.000421   0.000000   0.002891   0.000000
    10  H    0.000248  -0.026936   0.000010  -0.001312   0.002254  -0.000001
    11  C    0.556142  -0.030236  -0.025089   0.000313  -0.035859  -0.000014
    12  C   -0.029480   0.545218  -0.000199  -0.025817  -0.042702   0.000044
    13  C    5.100459  -0.055583   0.373573   0.002351   0.512475   0.001650
    14  C   -0.055583   4.961109   0.002963   0.374273   0.556270  -0.002807
    15  H    0.373573   0.002963   0.461053  -0.000096  -0.030726   0.000039
    16  H    0.002351   0.374273  -0.000096   0.423143  -0.027369   0.000577
    17  C    0.512475   0.556270  -0.030726  -0.027369   4.904108  -0.040460
    18  H    0.001650  -0.002807   0.000039   0.000577  -0.040460   0.444376
    19  H   -0.000898   0.003287   0.002458  -0.000046  -0.060086  -0.020669
    20  C   -0.031160  -0.041446  -0.003002  -0.000334   0.324537   0.410331
    21  N   -0.001225  -0.000741   0.000147  -0.002005  -0.074491  -0.039628
    22  H    0.000938   0.000255   0.000042  -0.000036   0.001189   0.003018
              19         20         21         22
     1  H    0.000003  -0.000106   0.003740   0.000048
     2  C   -0.000012   0.004594  -0.117180  -0.000021
     3  H   -0.000023  -0.000001   0.005609   0.000530
     4  H   -0.000002  -0.000200   0.000471   0.000026
     5  C    0.002275  -0.022332   0.270380  -0.017888
     6  O    0.000392   0.004756  -0.104134   0.002418
     7  H    0.000000   0.000006   0.000000   0.000000
     8  C   -0.000018   0.000257   0.000005  -0.000005
     9  F    0.000001  -0.000024   0.000000   0.000000
    10  H    0.000002  -0.000118   0.000005   0.000000
    11  C    0.000244   0.001462   0.000025   0.000007
    12  C   -0.000035   0.002330  -0.000035  -0.000007
    13  C   -0.000898  -0.031160  -0.001225   0.000938
    14  C    0.003287  -0.041446  -0.000741   0.000255
    15  H    0.002458  -0.003002   0.000147   0.000042
    16  H   -0.000046  -0.000334  -0.002005  -0.000036
    17  C   -0.060086   0.324537  -0.074491   0.001189
    18  H   -0.020669   0.410331  -0.039628   0.003018
    19  H    0.509515   0.419149  -0.043017  -0.002009
    20  C    0.419149   4.921703   0.194371  -0.022867
    21  N   -0.043017   0.194371   7.368190   0.322563
    22  H   -0.002009  -0.022867   0.322563   0.329709
 Mulliken charges:
               1
     1  H    0.215047
     2  C   -0.584270
     3  H    0.174112
     4  H    0.201180
     5  C    0.751004
     6  O   -0.613713
     7  H    0.222536
     8  C   -0.286906
     9  F   -0.391707
    10  H    0.214034
    11  C    0.480311
    12  C   -0.185890
    13  C   -0.320697
    14  C   -0.237673
    15  H    0.215456
    16  H    0.245670
    17  C    0.037768
    18  H    0.237120
    19  H    0.189489
    20  C   -0.161909
    21  N   -0.783052
    22  H    0.382089
 Sum of Mulliken charges =   0.00000
 Mulliken charges with hydrogens summed into heavy atoms:
               1
     2  C    0.006070
     5  C    0.751004
     6  O   -0.613713
     8  C   -0.064370
     9  F   -0.391707
    11  C    0.480311
    12  C    0.028144
    13  C   -0.105241
    14  C    0.007997
    17  C    0.037768
    20  C    0.264701
    21  N   -0.400964
 DipInt: DoE/N= T F RetVal/Mat= T F Init=T NMatP=  1 IDeriv=0 Min/MaxMlt=  0  4
 Entering OneElI...
 OneElI was handed  2147378491 working-precision words.
 Multipole integrals L=0 to 4 MinM= 0 MaxM= 0.
 Requested accuracy = 0.1000D-12
 ShPair: Thresh= 1.00D-13 NBox=     0 BxSize= 0.00D+00 RnKept= 1.64D+01
         NSMCal=                 2346 NSMKep=                2052
 PrsmSu:  NPrtUS=   1 ThrOK=F IAlg=1 NPAlg=1 LenDen=           0.
 Prism:   IPart=     0 DynPar=F LinDyn=F Incr=          20.
 PRISM was handed  2147191140 working-precision words and  2052 shell-pairs
 IPart=  0 NShTot=        2052 NBatch=          48 AvBLen=        42.8
 PrSmSu:  NxtVal=             21.
 Electronic moments (au):
        -88.00000000         -0.17139406         -0.66713230          0.80935955
      -2061.66703615       -379.67626079       -197.48836085          8.01696108
         -5.68510793          1.75634648        728.60461270       -302.09845961
        -59.72455907       -528.49920783        342.15869814      -1440.62750376
        514.38635428         51.09899395         38.51314483       -108.39367819
     -84205.98623430      -4105.37463733      -1537.92329836       4921.18704901
       2670.62552682      -1100.81770817       -139.49216517        947.63335570
        -87.31447685      -6990.82555007      -5701.66355884       -696.04723572
       1292.84521246       -481.90620949        -85.71366614
 Electronic spatial extent (au):  <R**2>=           2638.8317
 DipInt: DoE/N= F T RetVal/Mat= T F Init=T NMatP=  1 IDeriv=0 Min/MaxMlt=  0  4
 Nuclear    moments (au):
         88.00000000          0.00000000          0.00000000          0.00000000
       2004.45853190        331.28320247        145.46950116          0.00000000
         -0.00004098          0.00000502       -741.90319773        292.44991081
         64.29128358        545.17326465       -345.68295519       1480.28853819
       -517.35950857        -61.10929628        -31.80562892        110.81978357
      77286.94091652       2928.52785341        864.55574796      -4684.13569689
      -2836.77402034       1068.01317068        132.67828668       -905.10855415
         75.76767360       5611.65957877       4438.64240874        364.84477107
      -1219.09856999        477.60050929         63.86225270
 Total      moments (au):
          0.00000000         -0.17139406         -0.66713230          0.80935955
        -57.20850425        -48.39305832        -52.01885969          8.01696108
         -5.68514892          1.75635151        -13.29858503         -9.64854880
          4.56672450         16.67405681         -3.52425705         39.66103443
         -2.97315428        -10.01030234          6.70751591          2.42610538
      -6919.04531778      -1176.84678392       -673.36755040        237.05135212
       -166.14849352        -32.80453748         -6.81387850         42.52480154
        -11.54680324      -1379.16597131      -1263.02115010       -331.20246465
         73.74664247         -4.30570019        -21.85141343
 Traceless Quadrup. (au):
         -4.66836349          4.14708243          0.52128106          8.01696108
         -5.68514892          1.75635151
 Charge=              0.0000 electrons
 Dipole moment (field-independent basis, Debye):
    X=             -0.4356    Y=             -1.6957    Z=              2.0572  Tot=              2.7013
 Quadrupole moment (field-independent basis, Debye-Ang):
   XX=            -76.9474   YY=            -65.0903   ZZ=            -69.9671
   XY=             10.7831   XZ=             -7.6467   YZ=              2.3624
 Traceless Quadrupole moment (field-independent basis, Debye-Ang):
   XX=             -6.2791   YY=              5.5780   ZZ=              0.7011
   XY=             10.7831   XZ=             -7.6467   YZ=              2.3624
 Octapole moment (field-independent basis, Debye-Ang**2):
  XXX=             -9.4654  YYY=             -6.8675  ZZZ=              3.2504  XYY=             11.8680
  XXY=             -2.5084  XXZ=             28.2292  XZZ=             -2.1162  YZZ=             -7.1249
  YYZ=              4.7742  XYZ=              1.7268
 Hexadecapole moment (field-independent basis, Debye-Ang**3):
 XXXX=          -2606.0441 YYYY=           -443.2569 ZZZZ=           -253.6225 XXXY=             89.2849
 XXXZ=            -62.5795 YYYX=            -12.3558 YYYZ=             -2.5664 ZZZX=             16.0169
 ZZZY=             -4.3491 XXYY=           -519.4600 XXZZ=           -475.7143 YYZZ=           -124.7467
 XXYZ=             27.7765 YYXZ=             -1.6217 ZZXY=             -8.2303
 N-N= 6.657063658250D+02 E-N=-2.681725922918D+03  KE= 5.746476305292D+02
 Entering OneElI...
 OneElI was handed  2147397841 working-precision words.
 Calculate electrostatic properties
    NBasis =   200  MinDer = 0  MaxDer = 0
    NGrid  =    22  NMatD  =   1
 Requested accuracy = 0.1000D-12
 PrtBox:  NBox=     1 Levels=  1 BoxLen=   29.89 SMaxX=       16.14
          Shift=            8.996304            3.813668            3.508095
 Box      1 Number                   0 centers from      1 to     68:
 ShPair: Thresh= 1.00D-13 NBox=     1 BxSize= 2.99D+01 RnKept= 1.61D+01
         NSMCal=                 2346 NSMKep=                1902
 PrsmSu:  NPrtUS=   4 ThrOK=T IAlg=1 NPAlg=1 LenDen=           0.
 Prism:   IPart=     0 DynPar=F LinDyn=F Incr=         104.
 PRISM was handed   536759534 working-precision words and  1902 shell-pairs
 PRISM was handed   536759534 working-precision words and  1902 shell-pairs
 PRISM was handed   536759534 working-precision words and  1902 shell-pairs
 PRISM was handed   536759534 working-precision words and  1902 shell-pairs
 IPart=  1 NShTot=       10538 NBatch=         479 AvBLen=        22.0
 IPart=  2 NShTot=       10340 NBatch=         470 AvBLen=        22.0
 IPart=  0 NShTot=       10758 NBatch=         489 AvBLen=        22.0
 IPart=  3 NShTot=       10208 NBatch=         464 AvBLen=        22.0
 PrSmSu:  NxtVal=            417.
 --------------------------------------------------------
       Center         ----      EFG at Nuclei      ----
                      3XX-RR        3YY-RR        3ZZ-RR
 --------------------------------------------------------
     1   Atom       -0.228795      0.099444      0.129351
     2   Atom        0.003268      0.014482     -0.017749
     3   Atom        0.151558     -0.267446      0.115888
     4   Atom        0.090476      0.023975     -0.114451
     5   Atom       -0.056116     -0.045960      0.102076
     6   Atom        0.823825     -0.604811     -0.219015
     7   Atom       -0.189265      0.064141      0.125124
     8   Atom        0.102213      0.113189     -0.215402
     9   Atom       -1.361154      0.212971      1.148183
    10   Atom        0.155681     -0.321141      0.165460
    11   Atom       -0.125146      0.237240     -0.112094
    12   Atom        0.157920      0.153438     -0.311357
    13   Atom        0.114802      0.087471     -0.202273
    14   Atom        0.111655      0.138181     -0.249837
    15   Atom        0.153210     -0.322451      0.169240
    16   Atom       -0.155978      0.005143      0.150835
    17   Atom        0.108787      0.207799     -0.316586
    18   Atom        0.087373      0.054745     -0.142117
    19   Atom        0.129670     -0.250500      0.120830
    20   Atom       -0.090746      0.140297     -0.049551
    21   Atom       -0.048925      0.164826     -0.115901
    22   Atom        0.192878     -0.022772     -0.170106
 --------------------------------------------------------
                        XY            XZ            YZ
 --------------------------------------------------------
     1   Atom        0.157625     -0.099931      0.042840
     2   Atom       -0.022664      0.049338      0.001701
     3   Atom       -0.037457      0.020310      0.136253
     4   Atom       -0.096402     -0.126987     -0.192218
     5   Atom       -0.225863     -0.280399     -0.325161
     6   Atom       -0.596495     -0.966397      0.421616
     7   Atom       -0.174827     -0.139512     -0.069919
     8   Atom       -0.043207      0.111112      0.028594
     9   Atom        1.959465     -0.637252      0.512816
    10   Atom       -0.009327     -0.007210     -0.058616
    11   Atom        0.353837      0.050203      0.160369
    12   Atom       -0.004808      0.171879      0.058063
    13   Atom       -0.038925      0.108979      0.029522
    14   Atom       -0.008401      0.135427      0.048881
    15   Atom        0.004941     -0.007528     -0.059565
    16   Atom        0.210903     -0.085507      0.050595
    17   Atom       -0.041192      0.137409      0.050572
    18   Atom        0.077228     -0.131064      0.180455
    19   Atom        0.088101      0.033855     -0.123590
    20   Atom       -0.059148      0.206523     -0.049640
    21   Atom        0.538162      0.450902      0.505994
    22   Atom        0.083084     -0.037332      0.326465
 --------------------------------------------------------


 ---------------------------------------------------------------------------------
              Nuclear Quadrupole Coupling Constant in Principal Axis System
 ---------------------------------------------------------------------------------

       Atom             a.u.   MegaHertz   Gauss  10(-4) cm-1        Axes

              Baa    -0.5348     2.568     0.916     0.857 -0.6504 -0.0479  0.7581
    21 N(14)  Bbb    -0.4782     2.297     0.820     0.766 -0.5225  0.7526 -0.4007
              Bcc     1.0130    -4.865    -1.736    -1.623  0.5513  0.6567  0.5146
 

 ---------------------------------------------------------------------------------

 No NMR shielding tensors so no spin-rotation constants.
 Leave Link  601 at Wed Nov 29 18:26:38 2017, MaxMem=  2147483648 cpu:         0.4
 FitSet:  NAtFit=    22 NAtPot=    22 NAtFrz=     0 MDM=    26 TotChg=   0.00000
 Merz-Kollman atomic radii used.
 Atom Element Radius
    1     1    1.20
    2     6    1.50
    3     1    1.20
    4     1    1.20
    5     6    1.50
    6     8    1.40
    7     1    1.20
    8     6    1.50
    9     9    1.35
   10     1    1.20
   11     6    1.50
   12     6    1.50
   13     6    1.50
   14     6    1.50
   15     1    1.20
   16     1    1.20
   17     6    1.50
   18     1    1.20
   19     1    1.20
   20     6    1.50
   21     7    1.50
   22     1    1.20
 Generate VDW surfaces: Layer= 4 Dens= 6 Start= 1.400 Inc= 0.200

 **********************************************************************

            Electrostatic Properties Using The SCF Density

 **********************************************************************

       Atomic Center    1 is at  -4.760639  0.249687  1.011976
       Atomic Center    2 is at  -3.790510 -0.148237  1.272955
       Atomic Center    3 is at  -3.893524 -1.175300  1.603397
       Atomic Center    4 is at  -3.391690  0.438740  2.094669
       Atomic Center    5 is at  -2.869243 -0.008584  0.079925
       Atomic Center    6 is at  -3.005345  0.872158 -0.725936
       Atomic Center    7 is at   3.668200  1.507799  0.725138
       Atomic Center    8 is at   2.760635  1.050821  0.378122
       Atomic Center    9 is at   3.782425 -1.044550  0.465099
       Atomic Center   10 is at   1.645871  2.861899  0.219530
       Atomic Center   11 is at   2.703869 -0.310859  0.199409
       Atomic Center   12 is at   1.623648  1.794515  0.092947
       Atomic Center   13 is at   1.564716 -0.950620 -0.247028
       Atomic Center   14 is at   0.469127  1.179896 -0.356122
       Atomic Center   15 is at   1.581760 -2.018106 -0.372942
       Atomic Center   16 is at  -0.405210  1.763900 -0.577844
       Atomic Center   17 is at   0.431812 -0.202331 -0.527791
       Atomic Center   18 is at  -1.244817 -0.358269 -1.856404
       Atomic Center   19 is at  -0.615912 -1.896252 -1.316214
       Atomic Center   20 is at  -0.837349 -0.882137 -1.005613
       Atomic Center   21 is at  -1.881580 -0.933261  0.000238
       Atomic Center   22 is at  -1.752280 -1.552353  0.767803
      ESP Fit Center   23 is at  -5.180639  0.977148  2.466899
      ESP Fit Center   24 is at  -5.488100  0.669687  2.466899
      ESP Fit Center   25 is at  -5.600639  0.249687  2.466899
      ESP Fit Center   26 is at  -5.085734  1.392277  2.199915
      ESP Fit Center   27 is at  -5.476532  1.197683  2.199915
      ESP Fit Center   28 is at  -5.770645  0.875056  2.199915
      ESP Fit Center   29 is at  -5.928351  0.467970  2.199915
      ESP Fit Center   30 is at  -5.928351  0.031403  2.199915
      ESP Fit Center   31 is at  -5.770645 -0.375683  2.199915
      ESP Fit Center   32 is at  -4.651912  1.700541  1.851976
      ESP Fit Center   33 is at  -5.084390  1.668131  1.851976
      ESP Fit Center   34 is at  -5.488100  1.509687  1.851976
      ESP Fit Center   35 is at  -5.827173  1.239285  1.851976
      ESP Fit Center   36 is at  -6.071479  0.880954  1.851976
      ESP Fit Center   37 is at  -6.199311  0.466532  1.851976
      ESP Fit Center   38 is at  -6.199311  0.032842  1.851976
      ESP Fit Center   39 is at  -6.071479 -0.381581  1.851976
      ESP Fit Center   40 is at  -5.827173 -0.739912  1.851976
      ESP Fit Center   41 is at  -4.760639  1.872442  1.446792
      ESP Fit Center   42 is at  -5.180639  1.817148  1.446792
      ESP Fit Center   43 is at  -5.572017  1.655034  1.446792
      ESP Fit Center   44 is at  -5.908100  1.397148  1.446792
      ESP Fit Center   45 is at  -6.165986  1.061064  1.446792
      ESP Fit Center   46 is at  -6.328100  0.669687  1.446792
      ESP Fit Center   47 is at  -6.383394  0.249687  1.446792
      ESP Fit Center   48 is at  -6.328100 -0.170313  1.446792
      ESP Fit Center   49 is at  -6.165986 -0.561691  1.446792
      ESP Fit Center   50 is at  -5.908100 -0.897775  1.446792
      ESP Fit Center   51 is at  -4.655151  1.926372  1.011976
      ESP Fit Center   52 is at  -5.075440  1.899929  1.011976
      ESP Fit Center   53 is at  -5.475948  1.769796  1.011976
      ESP Fit Center   54 is at  -5.831511  1.544149  1.011976
      ESP Fit Center   55 is at  -6.119787  1.237166  1.011976
      ESP Fit Center   56 is at  -6.322663  0.868136  1.011976
      ESP Fit Center   57 is at  -6.427392  0.460246  1.011976
      ESP Fit Center   58 is at  -6.427392  0.039127  1.011976
      ESP Fit Center   59 is at  -6.322663 -0.368763  1.011976
      ESP Fit Center   60 is at  -6.119787 -0.737793  1.011976
      ESP Fit Center   61 is at  -5.831511 -1.044776  1.011976
      ESP Fit Center   62 is at  -4.340639  1.817148  0.577160
      ESP Fit Center   63 is at  -4.760639  1.872442  0.577160
      ESP Fit Center   64 is at  -5.180639  1.817148  0.577160
      ESP Fit Center   65 is at  -5.572017  1.655034  0.577160
      ESP Fit Center   66 is at  -5.908100  1.397148  0.577160
      ESP Fit Center   67 is at  -6.165986  1.061064  0.577160
      ESP Fit Center   68 is at  -6.328100  0.669687  0.577160
      ESP Fit Center   69 is at  -6.383394  0.249687  0.577160
      ESP Fit Center   70 is at  -6.328100 -0.170313  0.577160
      ESP Fit Center   71 is at  -6.165986 -0.561691  0.577160
      ESP Fit Center   72 is at  -5.908100 -0.897775  0.577160
      ESP Fit Center   73 is at  -5.572017 -1.155661  0.577160
      ESP Fit Center   74 is at  -4.651912  1.700541  0.171976
      ESP Fit Center   75 is at  -5.084390  1.668131  0.171976
      ESP Fit Center   76 is at  -5.488100  1.509687  0.171976
      ESP Fit Center   77 is at  -5.827173  1.239285  0.171976
      ESP Fit Center   78 is at  -6.071479  0.880954  0.171976
      ESP Fit Center   79 is at  -6.199311  0.466532  0.171976
      ESP Fit Center   80 is at  -6.199311  0.032842  0.171976
      ESP Fit Center   81 is at  -6.071479 -0.381581  0.171976
      ESP Fit Center   82 is at  -5.827173 -0.739912  0.171976
      ESP Fit Center   83 is at  -5.488100 -1.010313  0.171976
      ESP Fit Center   84 is at  -5.085734  1.392277 -0.175963
      ESP Fit Center   85 is at  -5.476532  1.197683 -0.175963
      ESP Fit Center   86 is at  -5.770645  0.875056 -0.175963
      ESP Fit Center   87 is at  -5.928351  0.467970 -0.175963
      ESP Fit Center   88 is at  -5.928351  0.031403 -0.175963
      ESP Fit Center   89 is at  -5.770645 -0.375683 -0.175963
      ESP Fit Center   90 is at  -5.476532 -0.698309 -0.175963
      ESP Fit Center   91 is at  -5.180639  0.977148 -0.442947
      ESP Fit Center   92 is at  -5.488100  0.669687 -0.442947
      ESP Fit Center   93 is at  -5.600639  0.249687 -0.442947
      ESP Fit Center   94 is at  -5.488100 -0.170313 -0.442947
      ESP Fit Center   95 is at  -5.180639 -0.477775 -0.442947
      ESP Fit Center   96 is at  -4.978047  0.626248 -0.610779
      ESP Fit Center   97 is at  -5.195455  0.249687 -0.610779
      ESP Fit Center   98 is at  -4.978047 -0.126875 -0.610779
      ESP Fit Center   99 is at  -4.594145 -0.148237  3.213102
      ESP Fit Center  100 is at  -4.486478 -0.550055  3.213102
      ESP Fit Center  101 is at  -3.388692 -0.844206  3.213102
      ESP Fit Center  102 is at  -4.937342  0.066143  3.019041
      ESP Fit Center  103 is at  -4.937342 -0.362617  3.019041
      ESP Fit Center  104 is at  -4.782456 -0.762424  3.019041
      ESP Fit Center  105 is at  -2.928310 -0.934236  3.019041
      ESP Fit Center  106 is at  -5.039708  0.654573  2.757879
      ESP Fit Center  107 is at  -5.215284  0.270114  2.757879
      ESP Fit Center  108 is at  -5.275434 -0.148237  2.757879
      ESP Fit Center  109 is at  -5.215284 -0.566589  2.757879
      ESP Fit Center  110 is at  -2.541312 -0.951048  2.757879
      ESP Fit Center  111 is at  -5.485858 -0.566103  2.439652
      ESP Fit Center  112 is at  -5.336592 -0.959684  2.439652
      ESP Fit Center  113 is at  -2.244427 -0.959684  2.439652
      ESP Fit Center  114 is at  -5.629096 -0.767729  2.076590
      ESP Fit Center  115 is at  -4.306766  1.845662  1.682645
      ESP Fit Center  116 is at  -5.591357 -1.147789  1.682645
      ESP Fit Center  117 is at  -3.380820  1.911412  1.272955
      ESP Fit Center  118 is at  -3.790510  1.951763  1.272955
      ESP Fit Center  119 is at  -4.200200  1.911412  1.272955
      ESP Fit Center  120 is at  -5.536596 -1.314935  1.272955
      ESP Fit Center  121 is at  -3.894829  1.908768  0.863265
      ESP Fit Center  122 is at  -5.199048 -1.482475  0.469320
      ESP Fit Center  123 is at  -5.097474 -1.306107  0.106257
      ESP Fit Center  124 is at  -4.782400 -1.585238  0.106257
      ESP Fit Center  125 is at  -4.409681 -1.780856  0.106257
      ESP Fit Center  126 is at  -5.039708 -0.951048 -0.211969
      ESP Fit Center  127 is at  -4.762929 -1.270468 -0.211969
      ESP Fit Center  128 is at  -4.407370 -1.498972 -0.211969
      ESP Fit Center  129 is at  -4.782456 -0.762424 -0.473131
      ESP Fit Center  130 is at  -3.893524 -1.175300  3.283397
      ESP Fit Center  131 is at  -3.458708 -1.175300  3.226152
      ESP Fit Center  132 is at  -4.328340 -1.175300  3.226152
      ESP Fit Center  133 is at  -4.110932 -1.551862  3.226152
      ESP Fit Center  134 is at  -3.676116 -1.551862  3.226152
      ESP Fit Center  135 is at  -3.053524 -1.175300  3.058320
      ESP Fit Center  136 is at  -4.733524 -1.175300  3.058320
      ESP Fit Center  137 is at  -4.620985 -1.595300  3.058320
      ESP Fit Center  138 is at  -4.313524 -1.902762  3.058320
      ESP Fit Center  139 is at  -3.893524 -2.015300  3.058320
      ESP Fit Center  140 is at  -3.473524 -1.902762  3.058320
      ESP Fit Center  141 is at  -3.166063 -1.595300  3.058320
      ESP Fit Center  142 is at  -2.705584 -1.175300  2.791336
      ESP Fit Center  143 is at  -5.061236 -0.957017  2.791336
      ESP Fit Center  144 is at  -5.061236 -1.393584  2.791336
      ESP Fit Center  145 is at  -4.903530 -1.800670  2.791336
      ESP Fit Center  146 is at  -4.609417 -2.123296  2.791336
      ESP Fit Center  147 is at  -4.218619 -2.317891  2.791336
      ESP Fit Center  148 is at  -3.783915 -2.358172  2.791336
      ESP Fit Center  149 is at  -3.364014 -2.238700  2.791336
      ESP Fit Center  150 is at  -3.015626 -1.975610  2.791336
      ESP Fit Center  151 is at  -2.785803 -1.604434  2.791336
      ESP Fit Center  152 is at  -5.332196 -1.392145  2.443397
      ESP Fit Center  153 is at  -5.204364 -1.806568  2.443397
      ESP Fit Center  154 is at  -4.960058 -2.164899  2.443397
      ESP Fit Center  155 is at  -4.620985 -2.435300  2.443397
      ESP Fit Center  156 is at  -4.217275 -2.593745  2.443397
      ESP Fit Center  157 is at  -3.784797 -2.626155  2.443397
      ESP Fit Center  158 is at  -3.361981 -2.529650  2.443397
      ESP Fit Center  159 is at  -2.986394 -2.312805  2.443397
      ESP Fit Center  160 is at  -2.691410 -1.994887  2.443397
      ESP Fit Center  161 is at  -2.503239 -1.604146  2.443397
      ESP Fit Center  162 is at  -5.516279 -1.175300  2.038213
      ESP Fit Center  163 is at  -5.460985 -1.595300  2.038213
      ESP Fit Center  164 is at  -5.298871 -1.986678  2.038213
      ESP Fit Center  165 is at  -5.040985 -2.322762  2.038213
      ESP Fit Center  166 is at  -4.704902 -2.580648  2.038213
      ESP Fit Center  167 is at  -4.313524 -2.742762  2.038213
      ESP Fit Center  168 is at  -3.893524 -2.798056  2.038213
      ESP Fit Center  169 is at  -3.473524 -2.742762  2.038213
      ESP Fit Center  170 is at  -3.082146 -2.580648  2.038213
      ESP Fit Center  171 is at  -2.746063 -2.322762  2.038213
      ESP Fit Center  172 is at  -5.560277 -1.385860  1.603397
      ESP Fit Center  173 is at  -5.455548 -1.793750  1.603397
      ESP Fit Center  174 is at  -5.252672 -2.162780  1.603397
      ESP Fit Center  175 is at  -4.964396 -2.469763  1.603397
      ESP Fit Center  176 is at  -4.608833 -2.695410  1.603397
      ESP Fit Center  177 is at  -4.208324 -2.825543  1.603397
      ESP Fit Center  178 is at  -3.788036 -2.851985  1.603397
      ESP Fit Center  179 is at  -3.374375 -2.773075  1.603397
      ESP Fit Center  180 is at  -2.993335 -2.593771  1.603397
      ESP Fit Center  181 is at  -5.460985 -1.595300  1.168581
      ESP Fit Center  182 is at  -5.298871 -1.986678  1.168581
      ESP Fit Center  183 is at  -5.040985 -2.322762  1.168581
      ESP Fit Center  184 is at  -4.704902 -2.580648  1.168581
      ESP Fit Center  185 is at  -4.313524 -2.742762  1.168581
      ESP Fit Center  186 is at  -3.893524 -2.798056  1.168581
      ESP Fit Center  187 is at  -3.473524 -2.742762  1.168581
      ESP Fit Center  188 is at  -3.082146 -2.580648  1.168581
      ESP Fit Center  189 is at  -5.204364 -1.806568  0.763397
      ESP Fit Center  190 is at  -4.960058 -2.164899  0.763397
      ESP Fit Center  191 is at  -4.620985 -2.435300  0.763397
      ESP Fit Center  192 is at  -4.217275 -2.593745  0.763397
      ESP Fit Center  193 is at  -3.784797 -2.626155  0.763397
      ESP Fit Center  194 is at  -3.361981 -2.529650  0.763397
      ESP Fit Center  195 is at  -4.903530 -1.800670  0.415458
      ESP Fit Center  196 is at  -4.609417 -2.123296  0.415458
      ESP Fit Center  197 is at  -4.218619 -2.317891  0.415458
      ESP Fit Center  198 is at  -3.783915 -2.358172  0.415458
      ESP Fit Center  199 is at  -4.313524 -1.902762  0.148474
      ESP Fit Center  200 is at  -3.893524 -2.015300  0.148474
      ESP Fit Center  201 is at  -3.391690  0.438740  3.774669
      ESP Fit Center  202 is at  -2.956874  0.438740  3.717424
      ESP Fit Center  203 is at  -3.174282  0.815301  3.717424
      ESP Fit Center  204 is at  -3.609098  0.815301  3.717424
      ESP Fit Center  205 is at  -3.826506  0.438740  3.717424
      ESP Fit Center  206 is at  -3.609098  0.062178  3.717424
      ESP Fit Center  207 is at  -3.174282  0.062178  3.717424
      ESP Fit Center  208 is at  -2.551690  0.438740  3.549592
      ESP Fit Center  209 is at  -2.664229  0.858740  3.549592
      ESP Fit Center  210 is at  -2.971690  1.166201  3.549592
      ESP Fit Center  211 is at  -3.391690  1.278740  3.549592
      ESP Fit Center  212 is at  -3.811690  1.166201  3.549592
      ESP Fit Center  213 is at  -4.119151  0.858740  3.549592
      ESP Fit Center  214 is at  -4.231690  0.438740  3.549592
      ESP Fit Center  215 is at  -4.119151  0.018740  3.549592
      ESP Fit Center  216 is at  -3.811690 -0.288722  3.549592
      ESP Fit Center  217 is at  -3.391690 -0.401260  3.549592
      ESP Fit Center  218 is at  -2.971690 -0.288722  3.549592
      ESP Fit Center  219 is at  -2.664229  0.018740  3.549592
      ESP Fit Center  220 is at  -2.203751  0.438740  3.282608
      ESP Fit Center  221 is at  -2.283969  0.867873  3.282608
      ESP Fit Center  222 is at  -2.513792  1.239049  3.282608
      ESP Fit Center  223 is at  -2.862180  1.502139  3.282608
      ESP Fit Center  224 is at  -3.282081  1.621612  3.282608
      ESP Fit Center  225 is at  -3.716785  1.581330  3.282608
      ESP Fit Center  226 is at  -4.107583  1.386736  3.282608
      ESP Fit Center  227 is at  -4.401696  1.064109  3.282608
      ESP Fit Center  228 is at  -4.559402  0.657023  3.282608
      ESP Fit Center  229 is at  -4.559402  0.220456  3.282608
      ESP Fit Center  230 is at  -4.401696 -0.186630  3.282608
      ESP Fit Center  231 is at  -3.282081 -0.744132  3.282608
      ESP Fit Center  232 is at  -2.862180 -0.624660  3.282608
      ESP Fit Center  233 is at  -2.513792 -0.361570  3.282608
      ESP Fit Center  234 is at  -2.283969  0.009606  3.282608
      ESP Fit Center  235 is at  -1.936767  0.438740  2.934669
      ESP Fit Center  236 is at  -2.001405  0.867586  2.934669
      ESP Fit Center  237 is at  -2.189576  1.258327  2.934669
      ESP Fit Center  238 is at  -2.484560  1.576244  2.934669
      ESP Fit Center  239 is at  -2.860147  1.793089  2.934669
      ESP Fit Center  240 is at  -3.282963  1.889594  2.934669
      ESP Fit Center  241 is at  -3.715441  1.857184  2.934669
      ESP Fit Center  242 is at  -4.119151  1.698740  2.934669
      ESP Fit Center  243 is at  -4.458224  1.428338  2.934669
      ESP Fit Center  244 is at  -4.702530  1.070007  2.934669
      ESP Fit Center  245 is at  -4.830362  0.655585  2.934669
      ESP Fit Center  246 is at  -2.484560 -0.698765  2.934669
      ESP Fit Center  247 is at  -2.189576 -0.380847  2.934669
      ESP Fit Center  248 is at  -2.001405  0.009894  2.934669
      ESP Fit Center  249 is at  -1.768935  0.438740  2.529485
      ESP Fit Center  250 is at  -1.824229  0.858740  2.529485
      ESP Fit Center  251 is at  -1.986343  1.250117  2.529485
      ESP Fit Center  252 is at  -2.244229  1.586201  2.529485
      ESP Fit Center  253 is at  -2.580312  1.844087  2.529485
      ESP Fit Center  254 is at  -2.971690  2.006201  2.529485
      ESP Fit Center  255 is at  -3.391690  2.061495  2.529485
      ESP Fit Center  256 is at  -3.811690  2.006201  2.529485
      ESP Fit Center  257 is at  -4.203068  1.844087  2.529485
      ESP Fit Center  258 is at  -4.539151  1.586201  2.529485
      ESP Fit Center  259 is at  -4.797037  1.250117  2.529485
      ESP Fit Center  260 is at  -1.986343 -0.372638  2.529485
      ESP Fit Center  261 is at  -1.824229  0.018740  2.529485
      ESP Fit Center  262 is at  -1.711690  0.438740  2.094669
      ESP Fit Center  263 is at  -1.764470  0.856539  2.094669
      ESP Fit Center  264 is at  -1.919495  1.248086  2.094669
      ESP Fit Center  265 is at  -2.167023  1.588779  2.094669
      ESP Fit Center  266 is at  -2.491501  1.857211  2.094669
      ESP Fit Center  267 is at  -2.872541  2.036515  2.094669
      ESP Fit Center  268 is at  -3.286202  2.115425  2.094669
      ESP Fit Center  269 is at  -3.706491  2.088982  2.094669
      ESP Fit Center  270 is at  -4.106999  1.958849  2.094669
      ESP Fit Center  271 is at  -4.462562  1.733202  2.094669
      ESP Fit Center  272 is at  -1.764470  0.020941  2.094669
      ESP Fit Center  273 is at  -1.986343  1.250117  1.659853
      ESP Fit Center  274 is at  -2.244229  1.586201  1.659853
      ESP Fit Center  275 is at  -2.580312  1.844087  1.659853
      ESP Fit Center  276 is at  -2.971690  2.006201  1.659853
      ESP Fit Center  277 is at  -3.391690  2.061495  1.659853
      ESP Fit Center  278 is at  -3.811690  2.006201  1.659853
      ESP Fit Center  279 is at  -2.860147  1.793089  1.254669
      ESP Fit Center  280 is at  -3.282963  1.889594  1.254669
      ESP Fit Center  281 is at  -1.444469  0.409767  1.564849
      ESP Fit Center  282 is at  -1.620045  0.794226  1.564849
      ESP Fit Center  283 is at  -1.896824  1.113647  1.564849
      ESP Fit Center  284 is at  -1.323160  0.802862  1.246622
      ESP Fit Center  285 is at  -1.562279  1.149285  1.246622
      ESP Fit Center  286 is at  -1.877353  1.428416  1.246622
      ESP Fit Center  287 is at  -2.250072  1.624035  1.246622
      ESP Fit Center  288 is at  -2.658775  1.724771  1.246622
      ESP Fit Center  289 is at  -1.324705  1.165543  0.883560
      ESP Fit Center  290 is at  -1.613218  1.470122  0.883560
      ESP Fit Center  291 is at  -1.960462  1.705559  0.883560
      ESP Fit Center  292 is at  -2.350199  1.860844  0.883560
      ESP Fit Center  293 is at  -4.432018 -1.350183 -0.329765
      ESP Fit Center  294 is at  -4.129966 -1.637305 -0.329765
      ESP Fit Center  295 is at  -3.776300 -1.857747 -0.329765
      ESP Fit Center  296 is at  -4.798017 -0.218351 -0.723710
      ESP Fit Center  297 is at  -4.707829 -0.628076 -0.723710
      ESP Fit Center  298 is at  -4.531672 -1.008835 -0.723710
      ESP Fit Center  299 is at  -4.277781 -1.342822 -0.723710
      ESP Fit Center  300 is at  -3.958028 -1.614423 -0.723710
      ESP Fit Center  301 is at  -4.564591 -0.426450 -1.086773
      ESP Fit Center  302 is at  -4.415325 -0.820031 -1.086773
      ESP Fit Center  303 is at  -4.176207 -1.166454 -1.086773
      ESP Fit Center  304 is at  -3.861133 -1.445585 -1.086773
      ESP Fit Center  305 is at  -4.118441 -0.811395 -1.404999
      ESP Fit Center  306 is at  -3.841662 -1.130815 -1.404999
      ESP Fit Center  307 is at  -3.486103 -1.359319 -1.404999
      ESP Fit Center  308 is at  -3.861189 -0.622771 -1.666161
      ESP Fit Center  309 is at  -3.572335 -0.939629 -1.666161
      ESP Fit Center  310 is at  -3.188525 -1.130744 -1.666161
      ESP Fit Center  311 is at  -3.271061 -0.704553 -1.860222
      ESP Fit Center  312 is at  -2.869243 -0.812220 -1.860222
      ESP Fit Center  313 is at  -2.899046  2.019302  0.859737
      ESP Fit Center  314 is at  -3.320621  1.980238  0.859737
      ESP Fit Center  315 is at  -2.051498  1.972955  0.585560
      ESP Fit Center  316 is at  -2.400266  2.197095  0.585560
      ESP Fit Center  317 is at  -2.798054  2.313896  0.585560
      ESP Fit Center  318 is at  -3.212636  2.313896  0.585560
      ESP Fit Center  319 is at  -3.610423  2.197095  0.585560
      ESP Fit Center  320 is at  -3.959191  1.972955  0.585560
      ESP Fit Center  321 is at  -2.095827  2.305328  0.254064
      ESP Fit Center  322 is at  -2.480816  2.486490  0.254064
      ESP Fit Center  323 is at  -2.898764  2.566218  0.254064
      ESP Fit Center  324 is at  -3.323408  2.539502  0.254064
      ESP Fit Center  325 is at  -3.728067  2.408020  0.254064
      ESP Fit Center  326 is at  -4.087315  2.180034  0.254064
      ESP Fit Center  327 is at  -4.378578  1.869870  0.254064
      ESP Fit Center  328 is at  -2.196555  2.551627 -0.120263
      ESP Fit Center  329 is at  -2.590550  2.689492 -0.120263
      ESP Fit Center  330 is at  -3.005345  2.736228 -0.120263
      ESP Fit Center  331 is at  -3.420140  2.689492 -0.120263
      ESP Fit Center  332 is at  -3.814135  2.551627 -0.120263
      ESP Fit Center  333 is at  -4.167574  2.329547 -0.120263
      ESP Fit Center  334 is at  -4.462734  2.034387 -0.120263
      ESP Fit Center  335 is at  -4.684815  1.680948 -0.120263
      ESP Fit Center  336 is at  -2.092294  2.594355 -0.521060
      ESP Fit Center  337 is at  -2.483862  2.750370 -0.521060
      ESP Fit Center  338 is at  -2.899814  2.818562 -0.521060
      ESP Fit Center  339 is at  -3.320701  2.795742 -0.521060
      ESP Fit Center  340 is at  -3.726842  2.682978 -0.521060
      ESP Fit Center  341 is at  -4.099246  2.485541 -0.521060
      ESP Fit Center  342 is at  -4.420501  2.212665 -0.521060
      ESP Fit Center  343 is at  -4.675585  1.877108 -0.521060
      ESP Fit Center  344 is at  -4.852570  1.494560 -0.521060
      ESP Fit Center  345 is at  -4.943181  1.082910 -0.521060
      ESP Fit Center  346 is at  -2.092294  2.594355 -0.930812
      ESP Fit Center  347 is at  -2.483862  2.750370 -0.930812
      ESP Fit Center  348 is at  -2.899814  2.818562 -0.930812
      ESP Fit Center  349 is at  -3.320701  2.795742 -0.930812
      ESP Fit Center  350 is at  -3.726842  2.682978 -0.930812
      ESP Fit Center  351 is at  -4.099246  2.485541 -0.930812
      ESP Fit Center  352 is at  -4.420501  2.212665 -0.930812
      ESP Fit Center  353 is at  -4.675585  1.877108 -0.930812
      ESP Fit Center  354 is at  -4.852570  1.494560 -0.930812
      ESP Fit Center  355 is at  -4.943181  1.082910 -0.930812
      ESP Fit Center  356 is at  -4.943181  0.661405 -0.930812
      ESP Fit Center  357 is at  -4.852570  0.249755 -0.930812
      ESP Fit Center  358 is at  -1.843116  2.329547 -1.331609
      ESP Fit Center  359 is at  -2.196555  2.551627 -1.331609
      ESP Fit Center  360 is at  -2.590550  2.689492 -1.331609
      ESP Fit Center  361 is at  -3.005345  2.736228 -1.331609
      ESP Fit Center  362 is at  -3.420140  2.689492 -1.331609
      ESP Fit Center  363 is at  -3.814135  2.551627 -1.331609
      ESP Fit Center  364 is at  -4.167574  2.329547 -1.331609
      ESP Fit Center  365 is at  -4.462734  2.034387 -1.331609
      ESP Fit Center  366 is at  -4.684815  1.680948 -1.331609
      ESP Fit Center  367 is at  -4.822680  1.286952 -1.331609
      ESP Fit Center  368 is at  -4.869416  0.872158 -1.331609
      ESP Fit Center  369 is at  -4.822680  0.457363 -1.331609
      ESP Fit Center  370 is at  -4.684815  0.063368 -1.331609
      ESP Fit Center  371 is at  -4.462734 -0.290071 -1.331609
      ESP Fit Center  372 is at  -1.767986  2.034115 -1.705936
      ESP Fit Center  373 is at  -2.095827  2.305328 -1.705936
      ESP Fit Center  374 is at  -2.480816  2.486490 -1.705936
      ESP Fit Center  375 is at  -2.898764  2.566218 -1.705936
      ESP Fit Center  376 is at  -3.323408  2.539502 -1.705936
      ESP Fit Center  377 is at  -3.728067  2.408020 -1.705936
      ESP Fit Center  378 is at  -4.087315  2.180034 -1.705936
      ESP Fit Center  379 is at  -4.378578  1.869870 -1.705936
      ESP Fit Center  380 is at  -4.583557  1.497016 -1.705936
      ESP Fit Center  381 is at  -4.689370  1.084900 -1.705936
      ESP Fit Center  382 is at  -4.689370  0.659416 -1.705936
      ESP Fit Center  383 is at  -4.583557  0.247299 -1.705936
      ESP Fit Center  384 is at  -4.378578 -0.125555 -1.705936
      ESP Fit Center  385 is at  -4.087315 -0.435719 -1.705936
      ESP Fit Center  386 is at  -1.607782  1.282519 -2.037432
      ESP Fit Center  387 is at  -1.780005  1.659636 -2.037432
      ESP Fit Center  388 is at  -2.051498  1.972955 -2.037432
      ESP Fit Center  389 is at  -2.400266  2.197095 -2.037432
      ESP Fit Center  390 is at  -2.798054  2.313896 -2.037432
      ESP Fit Center  391 is at  -3.212636  2.313896 -2.037432
      ESP Fit Center  392 is at  -3.610423  2.197095 -2.037432
      ESP Fit Center  393 is at  -3.959191  1.972955 -2.037432
      ESP Fit Center  394 is at  -4.230684  1.659636 -2.037432
      ESP Fit Center  395 is at  -4.402908  1.282519 -2.037432
      ESP Fit Center  396 is at  -4.461909  0.872158 -2.037432
      ESP Fit Center  397 is at  -4.402908  0.461796 -2.037432
      ESP Fit Center  398 is at  -4.230684  0.084680 -2.037432
      ESP Fit Center  399 is at  -3.959191 -0.228640 -2.037432
      ESP Fit Center  400 is at  -3.610423 -0.452779 -2.037432
      ESP Fit Center  401 is at  -3.212636 -0.569580 -2.037432
      ESP Fit Center  402 is at  -1.931082  1.288329 -2.311609
      ESP Fit Center  403 is at  -2.153963  1.648295 -2.311609
      ESP Fit Center  404 is at  -2.491828  1.903439 -2.311609
      ESP Fit Center  405 is at  -2.899046  2.019302 -2.311609
      ESP Fit Center  406 is at  -3.320621  1.980238 -2.311609
      ESP Fit Center  407 is at  -3.699616  1.791521 -2.311609
      ESP Fit Center  408 is at  -3.984845  1.478639 -2.311609
      ESP Fit Center  409 is at  -4.137788  1.083848 -2.311609
      ESP Fit Center  410 is at  -4.137788  0.660467 -2.311609
      ESP Fit Center  411 is at  -3.984845  0.265677 -2.311609
      ESP Fit Center  412 is at  -3.699616 -0.047205 -2.311609
      ESP Fit Center  413 is at  -3.320621 -0.235922 -2.311609
      ESP Fit Center  414 is at  -2.899046 -0.274987 -2.311609
      ESP Fit Center  415 is at  -2.208141  0.872158 -2.516485
      ESP Fit Center  416 is at  -2.314946  1.270760 -2.516485
      ESP Fit Center  417 is at  -2.606743  1.562556 -2.516485
      ESP Fit Center  418 is at  -3.005345  1.669362 -2.516485
      ESP Fit Center  419 is at  -3.403947  1.562556 -2.516485
      ESP Fit Center  420 is at  -3.695744  1.270760 -2.516485
      ESP Fit Center  421 is at  -3.802549  0.872158 -2.516485
      ESP Fit Center  422 is at  -3.695744  0.473556 -2.516485
      ESP Fit Center  423 is at  -3.403947  0.181759 -2.516485
      ESP Fit Center  424 is at  -3.005345  0.074954 -2.516485
      ESP Fit Center  425 is at  -2.597838  0.872158 -2.643105
      ESP Fit Center  426 is at  -2.801592  1.225069 -2.643105
      ESP Fit Center  427 is at  -3.209098  1.225069 -2.643105
      ESP Fit Center  428 is at  -3.412852  0.872158 -2.643105
      ESP Fit Center  429 is at  -3.209098  0.519246 -2.643105
      ESP Fit Center  430 is at  -2.801592  0.519246 -2.643105
      ESP Fit Center  431 is at  -3.005345  0.872158 -2.685936
      ESP Fit Center  432 is at   3.668200  1.507799  2.405138
      ESP Fit Center  433 is at   4.103016  1.507799  2.347893
      ESP Fit Center  434 is at   3.885608  1.884361  2.347893
      ESP Fit Center  435 is at   3.450792  1.884361  2.347893
      ESP Fit Center  436 is at   3.885608  1.131237  2.347893
      ESP Fit Center  437 is at   4.508200  1.507799  2.180061
      ESP Fit Center  438 is at   4.395661  1.927799  2.180061
      ESP Fit Center  439 is at   4.088200  2.235260  2.180061
      ESP Fit Center  440 is at   3.668200  2.347799  2.180061
      ESP Fit Center  441 is at   3.248200  2.235260  2.180061
      ESP Fit Center  442 is at   4.088200  0.780338  2.180061
      ESP Fit Center  443 is at   4.395661  1.087799  2.180061
      ESP Fit Center  444 is at   4.856139  1.507799  1.913077
      ESP Fit Center  445 is at   4.775920  1.936932  1.913077
      ESP Fit Center  446 is at   4.546098  2.308109  1.913077
      ESP Fit Center  447 is at   4.197710  2.571199  1.913077
      ESP Fit Center  448 is at   3.777809  2.690671  1.913077
      ESP Fit Center  449 is at   3.343105  2.650390  1.913077
      ESP Fit Center  450 is at   4.197710  0.444399  1.913077
      ESP Fit Center  451 is at   4.546098  0.707489  1.913077
      ESP Fit Center  452 is at   4.775920  1.078666  1.913077
      ESP Fit Center  453 is at   5.123123  1.507799  1.565138
      ESP Fit Center  454 is at   5.058485  1.936645  1.565138
      ESP Fit Center  455 is at   4.870314  2.327386  1.565138
      ESP Fit Center  456 is at   4.575329  2.645303  1.565138
      ESP Fit Center  457 is at   4.199743  2.862148  1.565138
      ESP Fit Center  458 is at   3.776927  2.958653  1.565138
      ESP Fit Center  459 is at   3.344449  2.926244  1.565138
      ESP Fit Center  460 is at   4.575329  0.370295  1.565138
      ESP Fit Center  461 is at   4.870314  0.688212  1.565138
      ESP Fit Center  462 is at   5.058485  1.078953  1.565138
      ESP Fit Center  463 is at   5.290955  1.507799  1.159954
      ESP Fit Center  464 is at   5.235661  1.927799  1.159954
      ESP Fit Center  465 is at   5.073547  2.319177  1.159954
      ESP Fit Center  466 is at   4.815661  2.655260  1.159954
      ESP Fit Center  467 is at   4.479578  2.913146  1.159954
      ESP Fit Center  468 is at   4.088200  3.075260  1.159954
      ESP Fit Center  469 is at   3.668200  3.130554  1.159954
      ESP Fit Center  470 is at   3.248200  3.075260  1.159954
      ESP Fit Center  471 is at   5.073547  0.696421  1.159954
      ESP Fit Center  472 is at   5.235661  1.087799  1.159954
      ESP Fit Center  473 is at   5.348200  1.507799  0.725138
      ESP Fit Center  474 is at   5.295420  1.925598  0.725138
      ESP Fit Center  475 is at   5.140395  2.317145  0.725138
      ESP Fit Center  476 is at   4.892867  2.657838  0.725138
      ESP Fit Center  477 is at   4.568389  2.926270  0.725138
      ESP Fit Center  478 is at   4.187349  3.105574  0.725138
      ESP Fit Center  479 is at   3.773688  3.184484  0.725138
      ESP Fit Center  480 is at   3.353399  3.158042  0.725138
      ESP Fit Center  481 is at   5.140395  0.698453  0.725138
      ESP Fit Center  482 is at   5.295420  1.090000  0.725138
      ESP Fit Center  483 is at   5.290955  1.507799  0.290322
      ESP Fit Center  484 is at   5.235661  1.927799  0.290322
      ESP Fit Center  485 is at   5.073547  2.319177  0.290322
      ESP Fit Center  486 is at   4.815661  2.655260  0.290322
      ESP Fit Center  487 is at   4.479578  2.913146  0.290322
      ESP Fit Center  488 is at   4.088200  3.075260  0.290322
      ESP Fit Center  489 is at   3.668200  3.130554  0.290322
      ESP Fit Center  490 is at   5.073547  0.696421  0.290322
      ESP Fit Center  491 is at   5.235661  1.087799  0.290322
      ESP Fit Center  492 is at   5.123123  1.507799 -0.114862
      ESP Fit Center  493 is at   5.058485  1.936645 -0.114862
      ESP Fit Center  494 is at   4.870314  2.327386 -0.114862
      ESP Fit Center  495 is at   4.575329  2.645303 -0.114862
      ESP Fit Center  496 is at   4.199743  2.862148 -0.114862
      ESP Fit Center  497 is at   3.776927  2.958653 -0.114862
      ESP Fit Center  498 is at   4.870314  0.688212 -0.114862
      ESP Fit Center  499 is at   5.058485  1.078953 -0.114862
      ESP Fit Center  500 is at   4.856139  1.507799 -0.462801
      ESP Fit Center  501 is at   4.775920  1.936932 -0.462801
      ESP Fit Center  502 is at   4.546098  2.308109 -0.462801
      ESP Fit Center  503 is at   4.197710  2.571199 -0.462801
      ESP Fit Center  504 is at   3.777809  2.690671 -0.462801
      ESP Fit Center  505 is at   4.775920  1.078666 -0.462801
      ESP Fit Center  506 is at   4.508200  1.507799 -0.729785
      ESP Fit Center  507 is at   4.395661  1.927799 -0.729785
      ESP Fit Center  508 is at   2.760635  1.050821  2.478122
      ESP Fit Center  509 is at   3.170325  1.050821  2.437771
      ESP Fit Center  510 is at   2.965480  1.405623  2.437771
      ESP Fit Center  511 is at   2.555790  1.405623  2.437771
      ESP Fit Center  512 is at   2.350945  1.050821  2.437771
[...]
   D33        3.13574   0.00000   0.00000   0.00003   0.00003   3.13577
   D34       -0.01450   0.00000   0.00000   0.00000   0.00000  -0.01450
   D35       -2.32647   0.00000   0.00000   0.00000   0.00000  -2.32647
   D36       -0.25578   0.00000   0.00000  -0.00001  -0.00001  -0.25580
   D37        1.86151   0.00000   0.00000  -0.00003  -0.00003   1.86148
   D38        0.82387   0.00000   0.00000   0.00002   0.00002   0.82390
   D39        2.89456   0.00000   0.00000   0.00001   0.00001   2.89457
   D40       -1.27133   0.00000   0.00000  -0.00001  -0.00001  -1.27134
   D41        1.66062   0.00000   0.00000  -0.00002  -0.00002   1.66060
   D42       -1.24746   0.00000   0.00000   0.00000   0.00000  -1.24746
   D43       -0.46705   0.00000   0.00000  -0.00004  -0.00004  -0.46709
   D44        2.90806   0.00000   0.00000  -0.00002  -0.00002   2.90803
   D45       -2.49003   0.00000   0.00000  -0.00004  -0.00004  -2.49006
   D46        0.88508   0.00000   0.00000  -0.00002  -0.00002   0.88506
         Item               Value     Threshold  Converged?
 Maximum Force            0.000005     0.000450     YES
 RMS     Force            0.000001     0.000300     YES
 Maximum Displacement     0.000169     0.001800     YES
 RMS     Displacement     0.000039     0.001200     YES
 Predicted change in Energy=-4.904070D-10
 Optimization completed.
    -- Stationary point found.
                           ----------------------------
                           !   Optimized Parameters   !
                           ! (Angstroms and Degrees)  !
 --------------------------                            --------------------------
 ! Name  Definition              Value          Derivative Info.                !
 --------------------------------------------------------------------------------
 ! R1    R(1,2)                  1.0806         -DE/DX =    0.0                 !
 ! R2    R(2,3)                  1.0838         -DE/DX =    0.0                 !
 ! R3    R(2,4)                  1.0857         -DE/DX =    0.0                 !
 ! R4    R(2,5)                  1.5138         -DE/DX =    0.0                 !
 ! R5    R(5,6)                  1.2015         -DE/DX =    0.0                 !
 ! R6    R(5,21)                 1.3553         -DE/DX =    0.0                 !
 ! R7    R(7,8)                  1.0737         -DE/DX =    0.0                 !
 ! R8    R(8,11)                 1.3745         -DE/DX =    0.0                 !
 ! R9    R(8,12)                 1.3882         -DE/DX =    0.0                 !
 ! R10   R(9,11)                 1.3312         -DE/DX =    0.0                 !
 ! R11   R(10,12)                1.0751         -DE/DX =    0.0                 !
 ! R12   R(11,13)                1.3807         -DE/DX =    0.0                 !
 ! R13   R(12,14)                1.3829         -DE/DX =    0.0                 !
 ! R14   R(13,15)                1.075          -DE/DX =    0.0                 !
 ! R15   R(13,17)                1.3864         -DE/DX =    0.0                 !
 ! R16   R(14,16)                1.0746         -DE/DX =    0.0                 !
 ! R17   R(14,17)                1.3933         -DE/DX =    0.0                 !
 ! R18   R(17,20)                1.517          -DE/DX =    0.0                 !
 ! R19   R(18,20)                1.079          -DE/DX =    0.0                 !
 ! R20   R(19,20)                1.0835         -DE/DX =    0.0                 !
 ! R21   R(20,21)                1.4508         -DE/DX =    0.0                 !
 ! R22   R(21,22)                0.9946         -DE/DX =    0.0                 !
 ! A1    A(1,2,3)              109.7111         -DE/DX =    0.0                 !
 ! A2    A(1,2,4)              108.2697         -DE/DX =    0.0                 !
 ! A3    A(1,2,5)              108.7881         -DE/DX =    0.0                 !
 ! A4    A(3,2,4)              108.4504         -DE/DX =    0.0                 !
 ! A5    A(3,2,5)              112.678          -DE/DX =    0.0                 !
 ! A6    A(4,2,5)              108.8468         -DE/DX =    0.0                 !
 ! A7    A(2,5,6)              121.8215         -DE/DX =    0.0                 !
 ! A8    A(2,5,21)             115.2706         -DE/DX =    0.0                 !
 ! A9    A(6,5,21)             122.9038         -DE/DX =    0.0                 !
 ! A10   A(7,8,11)             119.9035         -DE/DX =    0.0                 !
 ! A11   A(7,8,12)             122.0502         -DE/DX =    0.0                 !
 ! A12   A(11,8,12)            118.0458         -DE/DX =    0.0                 !
 ! A13   A(8,11,9)             119.1158         -DE/DX =    0.0                 !
 ! A14   A(8,11,13)            122.3541         -DE/DX =    0.0                 !
 ! A15   A(9,11,13)            118.5301         -DE/DX =    0.0                 !
 ! A16   A(8,12,10)            119.3906         -DE/DX =    0.0                 !
 ! A17   A(8,12,14)            120.8232         -DE/DX =    0.0                 !
 ! A18   A(10,12,14)           119.7856         -DE/DX =    0.0                 !
 ! A19   A(11,13,15)           119.0066         -DE/DX =    0.0                 !
 ! A20   A(11,13,17)           119.3128         -DE/DX =    0.0                 !
 ! A21   A(15,13,17)           121.6797         -DE/DX =    0.0                 !
 ! A22   A(12,14,16)           120.3156         -DE/DX =    0.0                 !
 ! A23   A(12,14,17)           120.2167         -DE/DX =    0.0                 !
 ! A24   A(16,14,17)           119.4675         -DE/DX =    0.0                 !
 ! A25   A(13,17,14)           119.2471         -DE/DX =    0.0                 !
 ! A26   A(13,17,20)           120.3686         -DE/DX =    0.0                 !
 ! A27   A(14,17,20)           120.3824         -DE/DX =    0.0                 !
 ! A28   A(17,20,18)           110.287          -DE/DX =    0.0                 !
 ! A29   A(17,20,19)           109.8007         -DE/DX =    0.0                 !
 ! A30   A(17,20,21)           113.553          -DE/DX =    0.0                 !
 ! A31   A(18,20,19)           107.7918         -DE/DX =    0.0                 !
 ! A32   A(18,20,21)           106.9759         -DE/DX =    0.0                 !
 ! A33   A(19,20,21)           108.2324         -DE/DX =    0.0                 !
 ! A34   A(5,21,20)            122.7685         -DE/DX =    0.0                 !
 ! A35   A(5,21,22)            118.2981         -DE/DX =    0.0                 !
 ! A36   A(20,21,22)           117.6091         -DE/DX =    0.0                 !
 ! D1    D(1,2,5,6)             29.0163         -DE/DX =    0.0                 !
 ! D2    D(1,2,5,21)          -151.7045         -DE/DX =    0.0                 !
 ! D3    D(3,2,5,6)            150.9047         -DE/DX =    0.0                 !
 ! D4    D(3,2,5,21)           -29.8161         -DE/DX =    0.0                 !
 ! D5    D(4,2,5,6)            -88.7597         -DE/DX =    0.0                 !
 ! D6    D(4,2,5,21)            90.5196         -DE/DX =    0.0                 !
 ! D7    D(2,5,21,20)         -174.3081         -DE/DX =    0.0                 !
 ! D8    D(2,5,21,22)           -7.7746         -DE/DX =    0.0                 !
 ! D9    D(6,5,21,20)            4.9624         -DE/DX =    0.0                 !
 ! D10   D(6,5,21,22)          171.4959         -DE/DX =    0.0                 !
 ! D11   D(7,8,11,9)             0.1709         -DE/DX =    0.0                 !
 ! D12   D(7,8,11,13)         -179.857          -DE/DX =    0.0                 !
 ! D13   D(12,8,11,9)          179.9297         -DE/DX =    0.0                 !
 ! D14   D(12,8,11,13)          -0.0982         -DE/DX =    0.0                 !
 ! D15   D(7,8,12,10)            0.1118         -DE/DX =    0.0                 !
 ! D16   D(7,8,12,14)          179.8247         -DE/DX =    0.0                 !
 ! D17   D(11,8,12,10)        -179.6415         -DE/DX =    0.0                 !
 ! D18   D(11,8,12,14)           0.0713         -DE/DX =    0.0                 !
 ! D19   D(8,11,13,15)         179.6622         -DE/DX =    0.0                 !
 ! D20   D(8,11,13,17)          -0.0142         -DE/DX =    0.0                 !
 ! D21   D(9,11,13,15)          -0.3655         -DE/DX =    0.0                 !
 ! D22   D(9,11,13,17)         179.958          -DE/DX =    0.0                 !
 ! D23   D(8,12,14,16)        -179.7763         -DE/DX =    0.0                 !
 ! D24   D(8,12,14,17)           0.0664         -DE/DX =    0.0                 !
 ! D25   D(10,12,14,16)         -0.0645         -DE/DX =    0.0                 !
 ! D26   D(10,12,14,17)        179.7782         -DE/DX =    0.0                 !
 ! D27   D(11,13,17,14)          0.153          -DE/DX =    0.0                 !
 ! D28   D(11,13,17,20)       -179.3514         -DE/DX =    0.0                 !
 ! D29   D(15,13,17,14)       -179.5145         -DE/DX =    0.0                 !
 ! D30   D(15,13,17,20)          0.981          -DE/DX =    0.0                 !
 ! D31   D(12,14,17,13)         -0.1793         -DE/DX =    0.0                 !
 ! D32   D(12,14,17,20)        179.3251         -DE/DX =    0.0                 !
 ! D33   D(16,14,17,13)        179.6647         -DE/DX =    0.0                 !
 ! D34   D(16,14,17,20)         -0.8308         -DE/DX =    0.0                 !
 ! D35   D(13,17,20,18)       -133.2967         -DE/DX =    0.0                 !
 ! D36   D(13,17,20,19)        -14.6552         -DE/DX =    0.0                 !
 ! D37   D(13,17,20,21)        106.6567         -DE/DX =    0.0                 !
 ! D38   D(14,17,20,18)         47.2045         -DE/DX =    0.0                 !
 ! D39   D(14,17,20,19)        165.8459         -DE/DX =    0.0                 !
 ! D40   D(14,17,20,21)        -72.8421         -DE/DX =    0.0                 !
 ! D41   D(17,20,21,5)          95.1466         -DE/DX =    0.0                 !
 ! D42   D(17,20,21,22)        -71.4741         -DE/DX =    0.0                 !
 ! D43   D(18,20,21,5)         -26.76           -DE/DX =    0.0                 !
 ! D44   D(18,20,21,22)        166.6193         -DE/DX =    0.0                 !
 ! D45   D(19,20,21,5)        -142.6679         -DE/DX =    0.0                 !
 ! D46   D(19,20,21,22)         50.7113         -DE/DX =    0.0                 !
 --------------------------------------------------------------------------------
 GradGradGradGradGradGradGradGradGradGradGradGradGradGradGradGradGradGrad

                          Input orientation:                          
 ---------------------------------------------------------------------
 Center     Atomic      Atomic             Coordinates (Angstroms)
 Number     Number       Type             X           Y           Z
 ---------------------------------------------------------------------
      1          1           0       -4.760639    0.249687    1.011976
      2          6           0       -3.790510   -0.148237    1.272955
      3          1           0       -3.893524   -1.175300    1.603397
      4          1           0       -3.391690    0.438740    2.094669
      5          6           0       -2.869243   -0.008584    0.079925
      6          8           0       -3.005345    0.872158   -0.725936
      7          1           0        3.668200    1.507799    0.725138
      8          6           0        2.760635    1.050821    0.378122
      9          9           0        3.782425   -1.044550    0.465099
     10          1           0        1.645871    2.861899    0.219530
     11          6           0        2.703869   -0.310859    0.199409
     12          6           0        1.623648    1.794515    0.092947
     13          6           0        1.564716   -0.950620   -0.247028
     14          6           0        0.469127    1.179896   -0.356122
     15          1           0        1.581760   -2.018106   -0.372942
     16          1           0       -0.405210    1.763900   -0.577844
     17          6           0        0.431812   -0.202331   -0.527791
     18          1           0       -1.244817   -0.358269   -1.856404
     19          1           0       -0.615912   -1.896252   -1.316214
     20          6           0       -0.837349   -0.882137   -1.005613
     21          7           0       -1.881580   -0.933261    0.000238
     22          1           0       -1.752280   -1.552353    0.767803
 ---------------------------------------------------------------------
                    Distance matrix (angstroms):
                    1          2          3          4          5
     1  H    0.000000
     2  C    1.080557   0.000000
     3  H    1.769818   1.083818   0.000000
     4  H    1.755559   1.085732   1.760202   0.000000
     5  C    2.124336   1.513789   2.175165   2.128907   0.000000
     6  O    2.547325   2.377658   3.225948   2.879744   1.201517
     7  H    8.527042   7.659955   8.071557   7.270526   6.741949
     8  C    7.590333   6.719819   7.122833   6.416563   5.736444
     9  F    8.657833   7.668465   7.760993   7.504903   6.742868
    10  H    6.963835   6.302766   6.992779   5.896174   5.352141
    11  C    7.529499   6.584520   6.800297   6.427266   5.582582
    12  C    6.632513   5.871951   6.445188   5.567642   4.841219
    13  C    6.560179   5.624288   5.767750   5.655071   4.544703
    14  C    5.485201   4.749983   5.330984   4.632666   3.570341
    15  H    6.876548   5.921712   5.881749   6.071277   4.904559
    16  H    4.877513   4.306040   5.056189   4.221071   3.105772
    17  C    5.434772   4.590601   4.919061   4.680538   3.362116
    18  H    4.578015   4.039499   4.433217   4.566756   2.551550
    19  H    5.215773   4.453922   4.448218   4.979082   3.254227
    20  C    4.554547   3.801531   4.029030   4.228608   2.463753
    21  N    3.272913   2.424889   2.583916   2.923946   1.355307
    22  H    3.515280   2.526084   2.329230   2.900464   2.025834
                    6          7          8          9         10
     6  O    0.000000
     7  H    6.858998   0.000000
     8  C    5.873448   1.073743   0.000000
     9  F    7.153052   2.568103   2.332852   0.000000
    10  H    5.146531   2.485768   2.132570   4.459317   0.000000
    11  C    5.903467   2.124580   1.374530   1.331231   3.344571
    12  C    4.790500   2.159181   1.388216   3.585959   1.075093
    13  C    4.943413   3.378398   2.413877   2.331133   3.841818
    14  C    3.507623   3.392744   2.409727   4.074372   2.131956
    15  H    5.433209   4.241582   3.372263   2.548146   4.916257
    16  H    2.752787   4.284392   3.383035   5.148923   2.459337
    17  C    3.606638   3.868925   2.795440   3.594686   3.379635
    18  H    2.427214   5.855280   4.798155   5.579742   4.799485
    19  H    3.704310   5.840231   4.791355   4.821187   5.487638
    20  C    2.802852   5.385839   4.312370   4.850947   4.656733
    21  N    2.247157   6.106088   5.062562   5.684139   5.185966
    22  H    3.111219   6.224785   5.224439   5.566188   5.597647
                   11         12         13         14         15
    11  C    0.000000
    12  C    2.368715   0.000000
    13  C    1.380677   2.766735   0.000000
    14  C    2.743180   1.382873   2.398190   0.000000
    15  H    2.121652   3.841209   1.075021   3.386067   0.000000
    16  H    3.817737   2.137092   3.370262   1.074563   4.277102
    17  C    2.388062   2.406903   1.386447   1.393346   2.154854
    18  H    4.452049   4.081977   3.291572   2.748527   3.597952
    19  H    3.978886   4.541269   2.606246   3.400261   2.394655
    20  C    3.784001   3.798395   2.519932   2.526004   2.746413
    21  N    4.631781   4.442520   3.455199   3.180919   3.648407
    22  H    4.660648   4.801442   3.520572   3.696355   3.554441
                   16         17         18         19         20
    16  H    0.000000
    17  C    2.137563   0.000000
    18  H    2.615962   2.144904   0.000000
    19  H    3.739826   2.142126   1.747203   0.000000
    20  C    2.715003   1.516977   1.079033   1.083484   0.000000
    21  N    3.128662   2.482913   2.045288   2.064537   1.450782
    22  H    3.823990   2.876001   2.927425   2.398484   2.105064
                   21         22
    21  N    0.000000
    22  H    0.994560   0.000000
 Stoichiometry    C9H10FNO
 Framework group  C1[X(C9H10FNO)]
 Deg. of freedom    60
 Full point group                 C1      NOp   1
 Largest Abelian subgroup         C1      NOp   1
 Largest concise Abelian subgroup C1      NOp   1
                         Standard orientation:                         
 ---------------------------------------------------------------------
 Center     Atomic      Atomic             Coordinates (Angstroms)
 Number     Number       Type             X           Y           Z
 ---------------------------------------------------------------------
      1          1           0       -4.760639    0.249687    1.011976
      2          6           0       -3.790510   -0.148237    1.272955
      3          1           0       -3.893524   -1.175300    1.603397
      4          1           0       -3.391690    0.438740    2.094669
      5          6           0       -2.869243   -0.008584    0.079925
      6          8           0       -3.005345    0.872158   -0.725936
      7          1           0        3.668200    1.507799    0.725138
      8          6           0        2.760635    1.050821    0.378122
      9          9           0        3.782425   -1.044550    0.465099
     10          1           0        1.645871    2.861899    0.219530
     11          6           0        2.703869   -0.310859    0.199409
     12          6           0        1.623648    1.794515    0.092947
     13          6           0        1.564716   -0.950620   -0.247028
     14          6           0        0.469127    1.179896   -0.356122
     15          1           0        1.581760   -2.018106   -0.372942
     16          1           0       -0.405210    1.763900   -0.577844
     17          6           0        0.431812   -0.202331   -0.527791
     18          1           0       -1.244817   -0.358269   -1.856404
     19          1           0       -0.615912   -1.896252   -1.316214
     20          6           0       -0.837349   -0.882137   -1.005613
     21          7           0       -1.881580   -0.933261    0.000238
     22          1           0       -1.752280   -1.552353    0.767803
 ---------------------------------------------------------------------
 Rotational constants (GHZ):      2.2180687      0.4470515      0.4125490

 Test job not archived.
 1\1\GINC-LAC-138\FOpt\RHF\6-31G(d)\C9H10F1N1O1\SONGLIN3\29-Nov-2017\0\
 \#HF/6-31G* SCF=tight Test Pop=MK iop(6/33=2) iop(6/42=6) opt # iop(6/
 50=1)\\remark line goes here\\0,1\H,-4.760639,0.249687,1.011976\C,-3.7
 9051,-0.148237,1.272955\H,-3.893524,-1.1753,1.603397\H,-3.39169,0.4387
 4,2.094669\C,-2.869243,-0.008584,0.079925\O,-3.005345,0.872158,-0.7259
 36\H,3.6682,1.507799,0.725138\C,2.760635,1.050821,0.378122\F,3.782425,
 -1.04455,0.465099\H,1.645871,2.861899,0.21953\C,2.703869,-0.310859,0.1
 99409\C,1.623648,1.794515,0.092947\C,1.564716,-0.95062,-0.247028\C,0.4
 69127,1.179896,-0.356122\H,1.58176,-2.018106,-0.372942\H,-0.40521,1.76
 39,-0.577844\C,0.431812,-0.202331,-0.527791\H,-1.244817,-0.358269,-1.8
 56404\H,-0.615912,-1.896252,-1.316214\C,-0.837349,-0.882137,-1.005613\
 N,-1.88158,-0.933261,0.000238\H,-1.75228,-1.552353,0.767803\\Version=E
 S64L-G09RevD.01\State=1-A\HF=-575.4062653\RMSD=5.102e-09\RMSF=2.393e-0
 6\Dipole=-0.1713941,-0.6671323,0.8093596\Quadrupole=-4.6683628,4.14708
 18,0.5212811,8.0169615,-5.6851488,1.7563517\PG=C01 [X(C9H10F1N1O1)]\\@


 Luck is a matter of preparation meeting opportunity.
                                    -- Oprah Winfrey
 Job cpu time:       0 days  0 hours  0 minutes 32.5 seconds.
 File lengths (MBytes):  RWF=    134 Int=      0 D2E=      0 Chk=      5 Scr=      2
 Normal termination of Gaussian 09 at Wed Nov 29 18:26:43 2017.
