 Entering Gaussian System, Link 0=g09
 Initial command:
 /opt/software/Gaussian/g09/l1.exe "/mnt/ls15/scratch/users/songlin3/Gau-101363.inp" -scrdir="/mnt/ls15/scratch/users/songlin3/"
 Entering Link 1 = /opt/software/Gaussian/g09/l1.exe PID=    101397.
  
 Copyright (c) 1988,1990,1992,1993,1995,1998,2003,2009,2013,
            Gaussian, Inc.  All Rights Reserved.
  
 This is part of the Gaussian(R) 09 program.  It is based on
 the Gaussian(R) 03 system (copyright 2003, Gaussian, Inc.),
 the Gaussian(R) 98 system (copyright 1998, Gaussian, Inc.),
 the Gaussian(R) 94 system (copyright 1995, Gaussian, Inc.),
 the Gaussian 92(TM) system (copyright 1992, Gaussian, Inc.),
 the Gaussian 90(TM) system (copyright 1990, Gaussian, Inc.),
 the Gaussian 88(TM) system (copyright 1988, Gaussian, Inc.),
 the Gaussian 86(TM) system (copyright 1986, Carnegie Mellon
 University), and the Gaussian 82(TM) system (copyright 1983,
 Carnegie Mellon University). Gaussian is a federally registered
 trademark of Gaussian, Inc.
  
 This software contains proprietary and confidential information,
 including trade secrets, belonging to Gaussian, Inc.
  
 This software is provided under written license and may be
 used, copied, transmitted, or stored only in accord with that
 written license.
  
 The following legend is applicable only to US Government
 contracts under FAR:
  
                    RESTRICTED RIGHTS LEGEND
  
 Use, reproduction and disclosure by the US Government is
 subject to restrictions as set forth in subparagraphs (a)
 and (c) of the Commercial Computer Software - Restricted
 Rights clause in FAR 52.227-19.
  
 Gaussian, Inc.
 340 Quinnipiac St., Bldg. 40, Wallingford CT 06492
  
  
 ---------------------------------------------------------------
 Warning -- This program may not be used in any manner that
 competes with the business of Gaussian, Inc. or will provide
 assistance to any competitor of Gaussian, Inc.  The licensee
 of this program is prohibited from giving any competitor of
 Gaussian, Inc. access to this program.  By using this program,
 the user acknowledges that Gaussian, Inc. is engaged in the
 business of creating and licensing software in the field of
 computational chemistry and represents and warrants to the
 licensee that it is not a competitor of Gaussian, Inc. and that
 it will not use this program in any manner prohibited above.
 ---------------------------------------------------------------
  

 Cite this work as:
 Gaussian 09, Revision D.01,
 M. J. Frisch, G. W. Trucks, H. B. Schlegel, G. E. Scuseria, 
 M. A. Robb, J. R. Cheeseman, G. Scalmani, V. Barone, B. Mennucci, 
 G. A. Petersson, H. Nakatsuji, M. Caricato, X. Li, H. P. Hratchian, 
 A. F. Izmaylov, J. Bloino, G. Zheng, J. L. Sonnenberg, M. Hada, 
 M. Ehara, K. Toyota, R. Fukuda, J. Hasegawa, M. Ishida, T. Nakajima, 
 Y. Honda, O. Kitao, H. Nakai, T. Vreven, J. A. Montgomery, Jr., 
 J. E. Peralta, F. Ogliaro, M. Bearpark, J. J. Heyd, E. Brothers, 
 K. N. Kudin, V. N. Staroverov, T. Keith, R. Kobayashi, J. Normand, 
 K. Raghavachari, A. Rendell, J. C. Burant, S. S. Iyengar, J. Tomasi, 
 M. Cossi, N. Rega, J. M. Millam, M. Klene, J. E. Knox, J. B. Cross, 
 V. Bakken, C. Adamo, J. Jaramillo, R. Gomperts, R. E. Stratmann, 
 O. Yazyev, A. J. Austin, R. Cammi, C. Pomelli, J. W. Ochterski, 
 R. L. Martin, K. Morokuma, V. G. Zakrzewski, G. A. Voth, 
 P. Salvador, J. J. Dannenberg, S. Dapprich, A. D. Daniels, 
 O. Farkas, J. B. Foresman, J. V. Ortiz, J. Cioslowski, 
 and D. J. Fox, Gaussian, Inc., Wallingford CT, 2013.
 
 ******************************************
 Gaussian 09:  ES64L-G09RevD.01 24-Apr-2013
                29-Nov-2017 
 ******************************************
 %RWF=myrwf
 %NoSave
 %chk=opt.chk
 %NprocShared=4
 Will use up to    4 processors via shared memory.
 %Mem=16GB
 ------------------------------------------------------------
 #HF/6-31G* SCF=tight Test Pop=MK iop(6/33=2) iop(6/42=6) opt
 ------------------------------------------------------------
 1/18=20,19=15,38=1/1,3;
 2/9=110,12=2,17=6,18=5,40=1/2;
 3/5=1,6=6,7=1,11=9,16=1,25=1,30=1,71=1/1,2,3;
 4//1;
 5/5=2,32=2,38=5/2;
 6/7=2,8=2,9=2,10=2,15=8,20=1,28=1,33=2,42=6/1,2;
 7//1,2,3,16;
 1/18=20,19=15/3(2);
 2/9=110/2;
 99//99;
 2/9=110/2;
 3/5=1,6=6,7=1,11=9,16=1,25=1,30=1,71=1/1,2,3;
 4/5=5,16=3,69=1/1;
 5/5=2,32=2,38=5/2;
 7//1,2,3,16;
 1/18=20,19=15/3(-5);
 2/9=110/2;
 6/7=2,8=2,9=2,10=2,15=8,19=2,20=1,28=1,33=2,42=6/1,2;
 99/9=1/99;
 ---------------------
 remark line goes here
 ---------------------
 Symbolic Z-matrix:
 Charge =  0 Multiplicity = 1
 H                     18.606   -12.945    20.753 
 C                     18.177   -11.978    21.013 
 H                     18.835   -11.182    20.664 
 H                     18.066   -11.909    22.095 
 C                     16.789   -11.792    20.361 
 O                     16.313   -12.682    19.653 
 H                     10.794   -11.493    23.56 
 C                     11.607   -11.256    22.887 
 F                     11.629   -8.99      23.664 
 H                     11.76    -13.262    22.096 
 C                     12.13    -9.948     22.849 
 C                     12.153   -12.255    22.055 
 C                     13.183   -9.636     21.968 
 C                     13.209   -11.943    21.173 
 H                     13.578   -8.631     21.953 
 H                     13.627   -12.713    20.537 
 C                     13.72    -10.628    21.118 
 H                     14.615   -10.733    19.172 
 H                     14.821   -9.197     19.99 
 C                     14.828   -10.276    20.141 
 N                     16.156   -10.641    20.607 
 H                     16.654   -9.937     21.152 
 

 GradGradGradGradGradGradGradGradGradGradGradGradGradGradGradGradGradGrad
 Berny optimization.
 Initialization pass.
                           ----------------------------
                           !    Initial Parameters    !
                           ! (Angstroms and Degrees)  !
 --------------------------                            --------------------------
 ! Name  Definition              Value          Derivative Info.                !
 --------------------------------------------------------------------------------
 ! R1    R(1,2)                  1.0894         estimate D2E/DX2                !
 ! R2    R(2,3)                  1.0901         estimate D2E/DX2                !
 ! R3    R(2,4)                  1.0899         estimate D2E/DX2                !
 ! R4    R(2,5)                  1.5447         estimate D2E/DX2                !
 ! R5    R(5,6)                  1.2329         estimate D2E/DX2                !
 ! R6    R(5,21)                 1.3364         estimate D2E/DX2                !
 ! R7    R(7,8)                  1.0817         estimate D2E/DX2                !
 ! R8    R(8,11)                 1.4092         estimate D2E/DX2                !
 ! R9    R(8,12)                 1.4101         estimate D2E/DX2                !
 ! R10   R(9,11)                 1.3539         estimate D2E/DX2                !
 ! R11   R(10,12)                1.0817         estimate D2E/DX2                !
 ! R12   R(11,13)                1.4079         estimate D2E/DX2                !
 ! R13   R(12,14)                1.4108         estimate D2E/DX2                !
 ! R14   R(13,15)                1.0799         estimate D2E/DX2                !
 ! R15   R(13,17)                1.4124         estimate D2E/DX2                !
 ! R16   R(14,16)                1.0826         estimate D2E/DX2                !
 ! R17   R(14,17)                1.4119         estimate D2E/DX2                !
 ! R18   R(17,20)                1.5186         estimate D2E/DX2                !
 ! R19   R(18,20)                1.0923         estimate D2E/DX2                !
 ! R20   R(19,20)                1.0895         estimate D2E/DX2                !
 ! R21   R(20,21)                1.4539         estimate D2E/DX2                !
 ! R22   R(21,22)                1.0201         estimate D2E/DX2                !
 ! A1    A(1,2,3)              109.5151         estimate D2E/DX2                !
 ! A2    A(1,2,4)              109.4664         estimate D2E/DX2                !
 ! A3    A(1,2,5)              111.0996         estimate D2E/DX2                !
 ! A4    A(3,2,4)              109.4559         estimate D2E/DX2                !
 ! A5    A(3,2,5)              108.6209         estimate D2E/DX2                !
 ! A6    A(4,2,5)              108.6565         estimate D2E/DX2                !
 ! A7    A(2,5,6)              120.1577         estimate D2E/DX2                !
 ! A8    A(2,5,21)             116.8465         estimate D2E/DX2                !
 ! A9    A(6,5,21)             122.9957         estimate D2E/DX2                !
 ! A10   A(7,8,11)             119.9396         estimate D2E/DX2                !
 ! A11   A(7,8,12)             120.1923         estimate D2E/DX2                !
 ! A12   A(11,8,12)            119.866          estimate D2E/DX2                !
 ! A13   A(8,11,9)             120.2128         estimate D2E/DX2                !
 ! A14   A(8,11,13)            120.0085         estimate D2E/DX2                !
 ! A15   A(9,11,13)            119.7773         estimate D2E/DX2                !
 ! A16   A(8,12,10)            119.7671         estimate D2E/DX2                !
 ! A17   A(8,12,14)            120.134          estimate D2E/DX2                !
 ! A18   A(10,12,14)           120.0989         estimate D2E/DX2                !
 ! A19   A(11,13,15)           119.2397         estimate D2E/DX2                !
 ! A20   A(11,13,17)           120.35           estimate D2E/DX2                !
 ! A21   A(15,13,17)           120.4098         estimate D2E/DX2                !
 ! A22   A(12,14,16)           119.9313         estimate D2E/DX2                !
 ! A23   A(12,14,17)           120.0818         estimate D2E/DX2                !
 ! A24   A(16,14,17)           119.9869         estimate D2E/DX2                !
 ! A25   A(13,17,14)           119.5448         estimate D2E/DX2                !
 ! A26   A(13,17,20)           120.118          estimate D2E/DX2                !
 ! A27   A(14,17,20)           120.3333         estimate D2E/DX2                !
 ! A28   A(17,20,18)           109.3582         estimate D2E/DX2                !
 ! A29   A(17,20,19)           108.3023         estimate D2E/DX2                !
 ! A30   A(17,20,21)           113.7052         estimate D2E/DX2                !
 ! A31   A(18,20,19)           106.8658         estimate D2E/DX2                !
 ! A32   A(18,20,21)           110.9404         estimate D2E/DX2                !
 ! A33   A(19,20,21)           107.3916         estimate D2E/DX2                !
 ! A34   A(5,21,20)            126.1456         estimate D2E/DX2                !
 ! A35   A(5,21,22)            117.4828         estimate D2E/DX2                !
 ! A36   A(20,21,22)           116.3513         estimate D2E/DX2                !
 ! D1    D(1,2,5,6)             -0.0181         estimate D2E/DX2                !
 ! D2    D(1,2,5,21)           179.9099         estimate D2E/DX2                !
 ! D3    D(3,2,5,6)            120.5029         estimate D2E/DX2                !
 ! D4    D(3,2,5,21)           -59.5691         estimate D2E/DX2                !
 ! D5    D(4,2,5,6)           -120.5018         estimate D2E/DX2                !
 ! D6    D(4,2,5,21)            59.4262         estimate D2E/DX2                !
 ! D7    D(2,5,21,20)         -177.549          estimate D2E/DX2                !
 ! D8    D(2,5,21,22)            4.1601         estimate D2E/DX2                !
 ! D9    D(6,5,21,20)            2.3768         estimate D2E/DX2                !
 ! D10   D(6,5,21,22)         -175.9141         estimate D2E/DX2                !
 ! D11   D(7,8,11,9)             0.7988         estimate D2E/DX2                !
 ! D12   D(7,8,11,13)         -179.6307         estimate D2E/DX2                !
 ! D13   D(12,8,11,9)         -178.6742         estimate D2E/DX2                !
 ! D14   D(12,8,11,13)           0.8963         estimate D2E/DX2                !
 ! D15   D(7,8,12,10)           -0.3706         estimate D2E/DX2                !
 ! D16   D(7,8,12,14)          179.6911         estimate D2E/DX2                !
 ! D17   D(11,8,12,10)         179.101          estimate D2E/DX2                !
 ! D18   D(11,8,12,14)          -0.8373         estimate D2E/DX2                !
 ! D19   D(8,11,13,15)        -179.6663         estimate D2E/DX2                !
 ! D20   D(8,11,13,17)           0.0602         estimate D2E/DX2                !
 ! D21   D(9,11,13,15)          -0.0939         estimate D2E/DX2                !
 ! D22   D(9,11,13,17)         179.6326         estimate D2E/DX2                !
 ! D23   D(8,12,14,16)         179.8853         estimate D2E/DX2                !
 ! D24   D(8,12,14,17)          -0.1792         estimate D2E/DX2                !
 ! D25   D(10,12,14,16)         -0.0527         estimate D2E/DX2                !
 ! D26   D(10,12,14,17)        179.8827         estimate D2E/DX2                !
 ! D27   D(11,13,17,14)         -1.0718         estimate D2E/DX2                !
 ! D28   D(11,13,17,20)        178.2055         estimate D2E/DX2                !
 ! D29   D(15,13,17,14)        178.6514         estimate D2E/DX2                !
 ! D30   D(15,13,17,20)         -2.0712         estimate D2E/DX2                !
 ! D31   D(12,14,17,13)          1.1291         estimate D2E/DX2                !
 ! D32   D(12,14,17,20)       -178.1467         estimate D2E/DX2                !
 ! D33   D(16,14,17,13)       -178.9355         estimate D2E/DX2                !
 ! D34   D(16,14,17,20)          1.7887         estimate D2E/DX2                !
 ! D35   D(13,17,20,18)       -136.0188         estimate D2E/DX2                !
 ! D36   D(13,17,20,19)        -19.908          estimate D2E/DX2                !
 ! D37   D(13,17,20,21)         99.3714         estimate D2E/DX2                !
 ! D38   D(14,17,20,18)         43.2528         estimate D2E/DX2                !
 ! D39   D(14,17,20,19)        159.3636         estimate D2E/DX2                !
 ! D40   D(14,17,20,21)        -81.357          estimate D2E/DX2                !
 ! D41   D(17,20,21,5)          92.112          estimate D2E/DX2                !
 ! D42   D(17,20,21,22)        -89.5799         estimate D2E/DX2                !
 ! D43   D(18,20,21,5)         -31.6429         estimate D2E/DX2                !
 ! D44   D(18,20,21,22)        146.6651         estimate D2E/DX2                !
 ! D45   D(19,20,21,5)        -148.0912         estimate D2E/DX2                !
 ! D46   D(19,20,21,22)         30.2168         estimate D2E/DX2                !
 --------------------------------------------------------------------------------
 Trust Radius=3.00D-01 FncErr=1.00D-07 GrdErr=1.00D-07
 Number of steps in this run=    114 maximum allowed number of steps=    132.
 GradGradGradGradGradGradGradGradGradGradGradGradGradGradGradGradGradGrad

                          Input orientation:                          
 ---------------------------------------------------------------------
 Center     Atomic      Atomic             Coordinates (Angstroms)
 Number     Number       Type             X           Y           Z
 ---------------------------------------------------------------------
      1          1           0       18.606000  -12.945000   20.753000
      2          6           0       18.177000  -11.978000   21.013000
      3          1           0       18.835000  -11.182000   20.664000
      4          1           0       18.066000  -11.909000   22.095000
      5          6           0       16.789000  -11.792000   20.361000
      6          8           0       16.313000  -12.682000   19.653000
      7          1           0       10.794000  -11.493000   23.560000
      8          6           0       11.607000  -11.256000   22.887000
      9          9           0       11.629000   -8.990000   23.664000
     10          1           0       11.760000  -13.262000   22.096000
     11          6           0       12.130000   -9.948000   22.849000
     12          6           0       12.153000  -12.255000   22.055000
     13          6           0       13.183000   -9.636000   21.968000
     14          6           0       13.209000  -11.943000   21.173000
     15          1           0       13.578000   -8.631000   21.953000
     16          1           0       13.627000  -12.713000   20.537000
     17          6           0       13.720000  -10.628000   21.118000
     18          1           0       14.615000  -10.733000   19.172000
     19          1           0       14.821000   -9.197000   19.990000
     20          6           0       14.828000  -10.276000   20.141000
     21          7           0       16.156000  -10.641000   20.607000
     22          1           0       16.654000   -9.937000   21.152000
 ---------------------------------------------------------------------
                    Distance matrix (angstroms):
                    1          2          3          4          5
     1  H    0.000000
     2  C    1.089371   0.000000
     3  H    1.780037   1.090129   0.000000
     4  H    1.779286   1.089865   1.779790   0.000000
     5  C    2.187364   1.544747   2.156392   2.156658   0.000000
     6  O    2.556759   2.412408   3.103644   3.103853   1.232858
     7  H    8.427034   7.825032   8.552264   7.429755   6.801693
     8  C    7.509506   6.870084   7.562486   6.540058   5.789741
     9  F    8.531968   7.670218   8.107484   7.239979   6.736959
    10  H    6.983685   6.633207   7.512167   6.449515   5.519236
    11  C    7.437325   6.637620   7.159190   6.296835   5.594351
    12  C    6.619102   6.119728   6.909076   5.923250   4.957469
    13  C    6.467970   5.597948   6.002969   5.387611   4.498224
    14  C    5.505271   4.970699   5.700007   4.943854   3.674037
    15  H    6.732858   5.765137   5.983742   5.559460   4.778798
    16  H    4.989080   4.633498   5.429858   4.772683   3.298100
    17  C    5.419844   4.658151   5.164906   4.634998   3.368487
    18  H    4.829139   4.198470   4.498451   4.672933   2.694713
    19  H    5.381068   4.476966   4.528432   4.723981   3.277909
    20  C    4.665982   3.856551   4.141306   4.119399   2.488409
    21  N    3.366338   2.456999   2.733674   2.733143   1.336415
    22  H    3.607987   2.550398   2.558306   2.602264   2.021121
                    6          7          8          9         10
     6  O    0.000000
     7  H    6.865692   0.000000
     8  C    5.885462   1.081696   0.000000
     9  F    7.187409   2.640653   2.395615   0.000000
    10  H    5.199467   2.491147   2.161741   4.552556   0.000000
    11  C    5.931835   2.162739   1.409197   1.353880   3.418553
    12  C    4.822606   2.166229   1.410085   3.677456   1.081748
    13  C    4.943100   3.419098   2.439823   2.389278   3.897331
    14  C    3.534309   3.425273   2.444620   4.173930   2.165939
    15  H    5.401928   4.303969   3.412891   2.618206   4.977121
    16  H    2.827899   4.318891   3.424288   5.256507   2.493506
    17  C    3.617843   3.908077   2.826396   3.679326   3.425790
    18  H    2.629290   5.867894   4.808619   5.668537   4.805897
    19  H    3.805898   5.850918   4.791856   4.871344   5.507194
    20  C    2.869182   5.426215   4.344624   4.929394   4.706468
    21  N    2.258417   6.180385   5.125429   5.706556   5.330251
    22  H    3.146157   6.523741   5.497472   5.697155   5.991494
                   11         12         13         14         15
    11  C    0.000000
    12  C    2.439921   0.000000
    13  C    1.407947   2.815605   0.000000
    14  C    2.820149   1.410817   2.440277   0.000000
    15  H    2.152675   3.895434   1.079942   3.422558   0.000000
    16  H    3.902765   2.164894   3.422401   1.082645   4.320900
    17  C    2.446806   2.445524   1.412421   1.411868   2.169193
    18  H    4.506859   4.085293   3.327409   2.728541   3.636995
    19  H    3.997420   4.553440   2.605427   3.396844   2.391396
    20  C    3.836672   3.838680   2.540385   2.542651   2.748066
    21  N    4.659988   4.552550   3.420683   3.271142   3.535237
    22  H    4.831822   5.142717   3.578309   3.986540   3.436424
                   16         17         18         19         20
    16  H    0.000000
    17  C    2.166434   0.000000
    18  H    2.599956   2.144520   0.000000
    19  H    3.753279   2.128931   1.752386   0.000000
    20  C    2.745576   1.518584   1.092327   1.089537   0.000000
    21  N    3.270157   2.489053   2.107693   2.061080   1.453948
    22  H    4.152966   3.014464   2.951531   2.292975   2.114549
                   21         22
    21  N    0.000000
    22  H    1.020120   0.000000
 Stoichiometry    C9H10FNO
 Framework group  C1[X(C9H10FNO)]
 Deg. of freedom    60
 Full point group                 C1      NOp   1
 Largest Abelian subgroup         C1      NOp   1
 Largest concise Abelian subgroup C1      NOp   1
                         Standard orientation:                         
 ---------------------------------------------------------------------
 Center     Atomic      Atomic             Coordinates (Angstroms)
 Number     Number       Type             X           Y           Z
 ---------------------------------------------------------------------
      1          1           0       -4.588789    0.308658    1.447365
      2          6           0       -3.847534   -0.462321    1.240333
      3          1           0       -4.350349   -1.372144    0.912032
      4          1           0       -3.276488   -0.669472    2.145209
      5          6           0       -2.870676   -0.011238    0.131949
      6          8           0       -2.996565    1.098247   -0.390676
      7          1           0        3.749941    1.370685    0.853576
      8          6           0        2.825882    0.970374    0.458693
      9          9           0        3.744136   -1.242228    0.471864
     10          1           0        1.820138    2.883379    0.413767
     11          6           0        2.708868   -0.411112    0.206423
     12          6           0        1.733450    1.825352    0.205815
     13          6           0        1.509444   -0.932608   -0.314863
     14          6           0        0.531007    1.302926   -0.315342
     15          1           0        1.431453   -1.993982   -0.498378
     16          1           0       -0.306319    1.962059   -0.506515
     17          6           0        0.419097   -0.077650   -0.588946
     18          1           0       -1.204899    0.022071   -1.985964
     19          1           0       -0.625049   -1.597677   -1.652724
     20          6           0       -0.857681   -0.639518   -1.189146
     21          7           0       -1.909192   -0.873134   -0.212563
     22          1           0       -1.921139   -1.792795    0.228715
 ---------------------------------------------------------------------
 Rotational constants (GHZ):      2.0590558      0.4418400      0.4036305
 Standard basis: 6-31G(d) (6D, 7F)
 There are   200 symmetry adapted cartesian basis functions of A   symmetry.
 There are   200 symmetry adapted basis functions of A   symmetry.
   200 basis functions,   376 primitive gaussians,   200 cartesian basis functions
    44 alpha electrons       44 beta electrons
       nuclear repulsion energy       656.4912996141 Hartrees.
 NAtoms=   22 NActive=   22 NUniq=   22 SFac= 1.00D+00 NAtFMM=   60 NAOKFM=F Big=F
 Integral buffers will be    131072 words long.
 Raffenetti 1 integral format.
 Two-electron integral symmetry is turned on.
 One-electron integrals computed using PRISM.
 NBasis=   200 RedAO= T EigKep=  5.02D-04  NBF=   200
 NBsUse=   200 1.00D-06 EigRej= -1.00D+00 NBFU=   200
 ExpMin= 1.61D-01 ExpMax= 7.00D+03 ExpMxC= 1.05D+03 IAcc=1 IRadAn=         1 AccDes= 0.00D+00
 Harris functional with IExCor=  205 and IRadAn=       1 diagonalized for initial guess.
 HarFok:  IExCor=  205 AccDes= 0.00D+00 IRadAn=         1 IDoV= 1 UseB2=F ITyADJ=14
 ICtDFT=  3500011 ScaDFX=  1.000000  1.000000  1.000000  1.000000
 FoFCou: FMM=F IPFlag=           0 FMFlag=      100000 FMFlg1=           0
         NFxFlg=           0 DoJE=T BraDBF=F KetDBF=T FulRan=T
         wScrn=  0.000000 ICntrl=     500 IOpCl=  0 I1Cent=   200000004 NGrid=           0
         NMat0=    1 NMatS0=      1 NMatT0=    0 NMatD0=    1 NMtDS0=    0 NMtDT0=    0
 Petite list used in FoFCou.
 Keep R1 ints in memory in canonical form, NReq=206216512.
 Requested convergence on RMS density matrix=1.00D-08 within 128 cycles.
 Requested convergence on MAX density matrix=1.00D-06.
 Requested convergence on             energy=1.00D-06.
 No special actions if energy rises.
 SCF Done:  E(RHF) =  -575.394832445     A.U. after   15 cycles
            NFock= 15  Conv=0.60D-08     -V/T= 2.0027

 **********************************************************************

            Population analysis using the SCF density.

 **********************************************************************

 Orbital symmetries:
 BldTbl:  Degeneracy threshold= 1.00D-02
       Occupied  (A) (A) (A) (A) (A) (A) (A) (A) (A) (A) (A) (A)
                 (A) (A) (A) (A) (A) (A) (A) (A) (A) (A) (A) (A)
                 (A) (A) (A) (A) (A) (A) (A) (A) (A) (A) (A) (A)
                 (A) (A) (A) (A) (A) (A) (A) (A)
       Virtual   (A) (A) (A) (A) (A) (A) (A) (A) (A) (A) (A) (A)
                 (A) (A) (A) (A) (A) (A) (A) (A) (A) (A) (A) (A)
                 (A) (A) (A) (A) (A) (A) (A) (A) (A) (A) (A) (A)
                 (A) (A) (A) (A) (A) (A) (A) (A) (A) (A) (A) (A)
                 (A) (A) (A) (A) (A) (A) (A) (A) (A) (A) (A) (A)
                 (A) (A) (A) (A) (A) (A) (A) (A) (A) (A) (A) (A)
                 (A) (A) (A) (A) (A) (A) (A) (A) (A) (A) (A) (A)
                 (A) (A) (A) (A) (A) (A) (A) (A) (A) (A) (A) (A)
                 (A) (A) (A) (A) (A) (A) (A) (A) (A) (A) (A) (A)
                 (A) (A) (A) (A) (A) (A) (A) (A) (A) (A) (A) (A)
                 (A) (A) (A) (A) (A) (A) (A) (A) (A) (A) (A) (A)
                 (A) (A) (A) (A) (A) (A) (A) (A) (A) (A) (A) (A)
                 (A) (A) (A) (A) (A) (A) (A) (A) (A) (A) (A) (A)
 The electronic state is 1-A.
 Alpha  occ. eigenvalues --  -26.31128 -20.51770 -15.59910 -11.35360 -11.33592
 Alpha  occ. eigenvalues --  -11.28312 -11.25858 -11.25261 -11.24910 -11.24755
 Alpha  occ. eigenvalues --  -11.24037 -11.23920  -1.61743  -1.36970  -1.24038
 Alpha  occ. eigenvalues --   -1.15220  -1.05270  -1.01607  -1.00069  -0.93680
 Alpha  occ. eigenvalues --   -0.84322  -0.82627  -0.78921  -0.73045  -0.69639
 Alpha  occ. eigenvalues --   -0.68748  -0.68416  -0.68125  -0.65346  -0.63232
 Alpha  occ. eigenvalues --   -0.61287  -0.59968  -0.58866  -0.56784  -0.56538
 Alpha  occ. eigenvalues --   -0.54467  -0.52634  -0.51554  -0.49482  -0.49254
 Alpha  occ. eigenvalues --   -0.41366  -0.39292  -0.34117  -0.32873
 Alpha virt. eigenvalues --    0.12471   0.13769   0.19983   0.20421   0.24279
 Alpha virt. eigenvalues --    0.25813   0.27746   0.29578   0.30201   0.31361
 Alpha virt. eigenvalues --    0.32396   0.32727   0.33860   0.34675   0.36520
 Alpha virt. eigenvalues --    0.38620   0.41575   0.43658   0.45081   0.47948
 Alpha virt. eigenvalues --    0.51661   0.52748   0.56458   0.58315   0.63382
 Alpha virt. eigenvalues --    0.69721   0.72295   0.72997   0.73045   0.74498
 Alpha virt. eigenvalues --    0.76067   0.76660   0.80285   0.80880   0.81808
 Alpha virt. eigenvalues --    0.82551   0.82749   0.83803   0.84681   0.86400
 Alpha virt. eigenvalues --    0.87946   0.88720   0.92055   0.93567   0.96147
 Alpha virt. eigenvalues --    0.97769   0.99662   1.00509   1.04140   1.07618
 Alpha virt. eigenvalues --    1.08499   1.09594   1.11028   1.12777   1.13826
 Alpha virt. eigenvalues --    1.14520   1.15415   1.16273   1.17202   1.18496
 Alpha virt. eigenvalues --    1.18584   1.19933   1.20701   1.22282   1.24392
 Alpha virt. eigenvalues --    1.30110   1.34311   1.35867   1.37534   1.41421
 Alpha virt. eigenvalues --    1.42909   1.45219   1.48613   1.49694   1.52471
 Alpha virt. eigenvalues --    1.56889   1.58496   1.61297   1.64096   1.65538
 Alpha virt. eigenvalues --    1.70067   1.70300   1.71612   1.72858   1.75277
 Alpha virt. eigenvalues --    1.75974   1.77282   1.79623   1.81848   1.92355
 Alpha virt. eigenvalues --    1.98815   2.03651   2.04927   2.06909   2.07630
 Alpha virt. eigenvalues --    2.12008   2.12270   2.12969   2.14438   2.18325
 Alpha virt. eigenvalues --    2.21347   2.21705   2.23210   2.23648   2.27422
 Alpha virt. eigenvalues --    2.27885   2.28763   2.31634   2.35614   2.36501
 Alpha virt. eigenvalues --    2.39470   2.41342   2.46101   2.48679   2.49955
 Alpha virt. eigenvalues --    2.51440   2.52950   2.56499   2.58371   2.61592
 Alpha virt. eigenvalues --    2.62896   2.65288   2.69511   2.71877   2.76933
 Alpha virt. eigenvalues --    2.79501   2.84898   2.86200   2.89902   2.92050
 Alpha virt. eigenvalues --    2.96490   3.02761   3.03552   3.05797   3.07539
 Alpha virt. eigenvalues --    3.10134   3.17312   3.22557   3.26178   3.33865
 Alpha virt. eigenvalues --    3.46453   3.49543   3.53252   3.74081   4.38624
 Alpha virt. eigenvalues --    4.45873   4.49214   4.52254   4.56206   4.62345
 Alpha virt. eigenvalues --    4.73645   4.75034   4.81412   4.89906   5.07123
 Alpha virt. eigenvalues --    5.73952
          Condensed to atoms (all electrons):
               1          2          3          4          5          6
     1  H    0.452171   0.385440  -0.018661  -0.018492  -0.029064   0.003626
     2  C    0.385440   5.256269   0.372131   0.374013   0.373171  -0.068798
     3  H   -0.018661   0.372131   0.518753  -0.024477  -0.033988   0.001307
     4  H   -0.018492   0.374013  -0.024477   0.511395  -0.034409   0.001187
     5  C   -0.029064   0.373171  -0.033988  -0.034409   4.181717   0.594027
     6  O    0.003626  -0.068798   0.001307   0.001187   0.594027   8.192433
     7  H    0.000000   0.000000   0.000000   0.000000   0.000000   0.000000
     8  C    0.000000   0.000000   0.000000   0.000000  -0.000001   0.000000
     9  F    0.000000   0.000000   0.000000   0.000000   0.000000   0.000000
    10  H    0.000000   0.000000   0.000000   0.000000   0.000001  -0.000002
    11  C    0.000000   0.000000   0.000000   0.000000  -0.000002   0.000000
    12  C    0.000000   0.000001   0.000000   0.000000   0.000034   0.000072
    13  C    0.000000  -0.000010   0.000000   0.000002  -0.000081  -0.000028
    14  C    0.000000   0.000014  -0.000001  -0.000001   0.002233  -0.000732
    15  H    0.000000   0.000000   0.000000   0.000000   0.000003   0.000000
    16  H   -0.000001   0.000101  -0.000001  -0.000012   0.000309   0.006676
    17  C    0.000003  -0.000294   0.000002   0.000057  -0.003369  -0.002731
    18  H    0.000001   0.000149  -0.000014  -0.000003   0.000363   0.004027
    19  H    0.000001  -0.000009  -0.000005  -0.000005   0.003006   0.000324
    20  C   -0.000065   0.003884  -0.000166  -0.000198  -0.016184   0.008264
    21  N    0.003528  -0.118205   0.003614   0.003690   0.237195  -0.103430
    22  H   -0.000002  -0.000398   0.000670   0.000392  -0.020473   0.002429
               7          8          9         10         11         12
     1  H    0.000000   0.000000   0.000000   0.000000   0.000000   0.000000
     2  C    0.000000   0.000000   0.000000   0.000000   0.000000   0.000001
     3  H    0.000000   0.000000   0.000000   0.000000   0.000000   0.000000
     4  H    0.000000   0.000000   0.000000   0.000000   0.000000   0.000000
     5  C    0.000000  -0.000001   0.000000   0.000001  -0.000002   0.000034
     6  O    0.000000   0.000000   0.000000  -0.000002   0.000000   0.000072
     7  H    0.454610   0.377450  -0.000479  -0.001486  -0.027485  -0.028651
     8  C    0.377450   5.058769  -0.033296  -0.027123   0.548170   0.498462
     9  F   -0.000479  -0.033296   9.206645  -0.000012   0.251466   0.002206
    10  H   -0.001486  -0.027123  -0.000012   0.452040   0.001086   0.381562
    11  C   -0.027485   0.548170   0.251466   0.001086   4.336410  -0.033087
    12  C   -0.028651   0.498462   0.002206   0.381562  -0.033087   4.926285
    13  C    0.003506  -0.077647  -0.031837   0.000172   0.542769  -0.025111
    14  C    0.002369  -0.049875  -0.000024  -0.025675  -0.025546   0.533123
    15  H   -0.000083   0.003591  -0.000373   0.000007  -0.024920  -0.000165
    16  H   -0.000075   0.002024   0.000000  -0.000822   0.000251  -0.025147
    17  C   -0.000061  -0.021662   0.002443   0.002046  -0.034121  -0.046145
    18  H    0.000000   0.000002   0.000000  -0.000001  -0.000010   0.000043
    19  H    0.000000  -0.000015   0.000000   0.000002   0.000213  -0.000047
    20  C    0.000004   0.000151  -0.000016  -0.000102   0.001305   0.002331
    21  N    0.000000   0.000007   0.000000   0.000003   0.000045  -0.000053
    22  H    0.000000  -0.000001   0.000000   0.000000   0.000005   0.000000
              13         14         15         16         17         18
     1  H    0.000000   0.000000   0.000000  -0.000001   0.000003   0.000001
     2  C   -0.000010   0.000014   0.000000   0.000101  -0.000294   0.000149
     3  H    0.000000  -0.000001   0.000000  -0.000001   0.000002  -0.000014
     4  H    0.000002  -0.000001   0.000000  -0.000012   0.000057  -0.000003
     5  C   -0.000081   0.002233   0.000003   0.000309  -0.003369   0.000363
     6  O   -0.000028  -0.000732   0.000000   0.006676  -0.002731   0.004027
     7  H    0.003506   0.002369  -0.000083  -0.000075  -0.000061   0.000000
     8  C   -0.077647  -0.049875   0.003591   0.002024  -0.021662   0.000002
     9  F   -0.031837  -0.000024  -0.000373   0.000000   0.002443   0.000000
    10  H    0.000172  -0.025675   0.000007  -0.000822   0.002046  -0.000001
    11  C    0.542769  -0.025546  -0.024920   0.000251  -0.034121  -0.000010
    12  C   -0.025111   0.533123  -0.000165  -0.025147  -0.046145   0.000043
    13  C    5.099971  -0.050340   0.374883   0.002008   0.501724   0.002147
    14  C   -0.050340   4.956329   0.002714   0.373908   0.553925  -0.002753
    15  H    0.374883   0.002714   0.466683  -0.000083  -0.032809   0.000047
    16  H    0.002008   0.373908  -0.000083   0.419225  -0.027051   0.000710
    17  C    0.501724   0.553925  -0.032809  -0.027051   4.910949  -0.043687
    18  H    0.002147  -0.002753   0.000047   0.000710  -0.043687   0.454280
    19  H   -0.001552   0.003091   0.002119  -0.000022  -0.059733  -0.021417
    20  C   -0.033371  -0.039623  -0.002898  -0.000180   0.329051   0.409286
    21  N   -0.000017  -0.001844   0.000209  -0.001040  -0.074049  -0.036538
    22  H    0.000670   0.000015   0.000028  -0.000015   0.001693   0.002452
              19         20         21         22
     1  H    0.000001  -0.000065   0.003528  -0.000002
     2  C   -0.000009   0.003884  -0.118205  -0.000398
     3  H   -0.000005  -0.000166   0.003614   0.000670
     4  H   -0.000005  -0.000198   0.003690   0.000392
     5  C    0.003006  -0.016184   0.237195  -0.020473
     6  O    0.000324   0.008264  -0.103430   0.002429
     7  H    0.000000   0.000004   0.000000   0.000000
     8  C   -0.000015   0.000151   0.000007  -0.000001
     9  F    0.000000  -0.000016   0.000000   0.000000
    10  H    0.000002  -0.000102   0.000003   0.000000
    11  C    0.000213   0.001305   0.000045   0.000005
    12  C   -0.000047   0.002331  -0.000053   0.000000
    13  C   -0.001552  -0.033371  -0.000017   0.000670
    14  C    0.003091  -0.039623  -0.001844   0.000015
    15  H    0.002119  -0.002898   0.000209   0.000028
    16  H   -0.000022  -0.000180  -0.001040  -0.000015
    17  C   -0.059733   0.329051  -0.074049   0.001693
    18  H   -0.021417   0.409286  -0.036538   0.002452
    19  H    0.513781   0.418920  -0.043598  -0.003724
    20  C    0.418920   4.916879   0.184339  -0.023653
    21  N   -0.043598   0.184339   7.394723   0.322981
    22  H   -0.003724  -0.023653   0.322981   0.331239
 Mulliken charges:
               1
     1  H    0.221515
     2  C   -0.577459
     3  H    0.180835
     4  H    0.186860
     5  C    0.745514
     6  O   -0.638653
     7  H    0.220381
     8  C   -0.279005
     9  F   -0.396726
    10  H    0.218304
    11  C    0.463451
    12  C   -0.185714
    13  C   -0.307856
    14  C   -0.231307
    15  H    0.211045
    16  H    0.249235
    17  C    0.043818
    18  H    0.230914
    19  H    0.188670
    20  C   -0.157957
    21  N   -0.771560
    22  H    0.385692
 Sum of Mulliken charges =   0.00000
 Mulliken charges with hydrogens summed into heavy atoms:
               1
     2  C    0.011751
     5  C    0.745514
     6  O   -0.638653
     8  C   -0.058624
     9  F   -0.396726
    11  C    0.463451
    12  C    0.032591
    13  C   -0.096810
    14  C    0.017928
    17  C    0.043818
    20  C    0.261628
    21  N   -0.385867
 DipInt: DoE/N= T F RetVal/Mat= T F Init=T NMatP=  1 IDeriv=0 Min/MaxMlt=  0  4
 Entering OneElI...
 OneElI was handed  2147378491 working-precision words.
 Multipole integrals L=0 to 4 MinM= 0 MaxM= 0.
 Requested accuracy = 0.1000D-12
 ShPair: Thresh= 1.00D-13 NBox=     0 BxSize= 0.00D+00 RnKept= 1.62D+01
         NSMCal=                 2346 NSMKep=                2046
 PrsmSu:  NPrtUS=   1 ThrOK=F IAlg=1 NPAlg=1 LenDen=           0.
 Prism:   IPart=     0 DynPar=F LinDyn=F Incr=          20.
 PRISM was handed  2147192126 working-precision words and  2046 shell-pairs
 IPart=  0 NShTot=        2046 NBatch=          47 AvBLen=        43.5
 PrSmSu:  NxtVal=             21.
 Electronic moments (au):
        -88.00000000         -0.21463927         -1.01382880          0.35216666
      -2086.67460954       -409.00090259       -202.00708386         11.19911786
         -3.45455638          2.02438971        881.68577277       -353.00351336
        -15.89135542       -535.44230001        677.00241462      -1634.12794713
        430.25948587         99.94787005        -14.42009142       -160.21046031
     -85703.15296617      -4505.90796299      -1689.05269446       4069.22464184
       3405.78233045       -749.72398048       -138.88421115        866.89277443
        -35.03115426      -8658.08807815      -5424.99716007       -733.14740393
       1708.83360053       -567.25469655       -430.61503182
 Electronic spatial extent (au):  <R**2>=           2697.6826
 DipInt: DoE/N= F T RetVal/Mat= T F Init=T NMatP=  1 IDeriv=0 Min/MaxMlt=  0  4
 Nuclear    moments (au):
         88.00000000          0.00000000          0.00000000          0.00000000
       2029.62368902        360.38610039        150.22271196          0.00000000
          0.00000000          0.00000000       -895.59155884        337.14461140
         17.71069925        548.94728065       -693.85612565       1668.15486973
       -436.03055901       -107.43465345         18.93009359        165.46295069
      78677.82773777       3267.53277926        993.92021403      -3747.45799187
      -3528.83164842        750.17206094        150.93605792       -820.80394064
         19.53899913       7227.64525985       4159.28418856        377.58440463
      -1630.42754790        576.63064982        388.05610499
 Total      moments (au):
          0.00000000         -0.21463927         -1.01382880          0.35216666
        -57.05092052        -48.61480220        -51.78437190         11.19911786
         -3.45455638          2.02438971        -13.90578606        -15.85890196
          1.81934383         13.50498064        -16.85371104         34.02692259
         -5.77107314         -7.48678340          4.51000217          5.25249038
      -7025.32522840      -1238.37518373       -695.13248043        321.76664997
       -123.04931798          0.44808046         12.05184677         46.08883379
        -15.49215513      -1430.44281830      -1265.71297151       -355.56299930
         78.40605264          9.37595326        -42.55892683
 Traceless Quadrup. (au):
         -4.56755565          3.86856267          0.69899297         11.19911786
         -3.45455638          2.02438971
 Charge=              0.0000 electrons
 Dipole moment (field-independent basis, Debye):
    X=             -0.5456    Y=             -2.5769    Z=              0.8951  Tot=              2.7820
 Quadrupole moment (field-independent basis, Debye-Ang):
   XX=            -76.7354   YY=            -65.3886   ZZ=            -69.6517
   XY=             15.0632   XZ=             -4.6465   YZ=              2.7229
 Traceless Quadrupole moment (field-independent basis, Debye-Ang):
   XX=             -6.1435   YY=              5.2033   ZZ=              0.9402
   XY=             15.0632   XZ=             -4.6465   YZ=              2.7229
 Octapole moment (field-independent basis, Debye-Ang**2):
  XXX=             -9.8976  YYY=            -11.2878  ZZZ=              1.2949  XYY=              9.6123
  XXY=            -11.9958  XXZ=             24.2191  XZZ=             -4.1076  YZZ=             -5.3288
  YYZ=              3.2100  XYZ=              3.7385
 Hexadecapole moment (field-independent basis, Debye-Ang**3):
 XXXX=          -2646.0742 YYYY=           -466.4314 ZZZZ=           -261.8202 XXXY=            121.1927
 XXXZ=            -46.3463 YYYX=              0.1688 YYYZ=              4.5393 ZZZX=             17.3593
 ZZZY=             -5.8351 XXYY=           -538.7733 XXZZ=           -476.7282 YYZZ=           -133.9221
 XXYZ=             29.5315 YYXZ=              3.5314 ZZXY=            -16.0297
 N-N= 6.564912996141D+02 E-N=-2.662650915177D+03  KE= 5.738449026631D+02
 Entering OneElI...
 OneElI was handed  2147397841 working-precision words.
 Calculate electrostatic properties
    NBasis =   200  MinDer = 0  MaxDer = 0
    NGrid  =    22  NMatD  =   1
 Requested accuracy = 0.1000D-12
 PrtBox:  NBox=     1 Levels=  1 BoxLen=   29.89 SMaxX=       15.76
          Shift=            8.671554            3.768080            3.752928
 Box      1 Number                   0 centers from      1 to     68:
 ShPair: Thresh= 1.00D-13 NBox=     1 BxSize= 2.99D+01 RnKept= 1.59D+01
         NSMCal=                 2346 NSMKep=                1897
 PrsmSu:  NPrtUS=   4 ThrOK=T IAlg=1 NPAlg=1 LenDen=           0.
 Prism:   IPart=     0 DynPar=F LinDyn=F Incr=         104.
 PRISM was handed   536760212 working-precision words and  1897 shell-pairs
 PRISM was handed   536760212 working-precision words and  1897 shell-pairs
 PRISM was handed   536760212 working-precision words and  1897 shell-pairs
 PRISM was handed   536760212 working-precision words and  1897 shell-pairs
 IPart=  1 NShTot=       10560 NBatch=         480 AvBLen=        22.0
 IPart=  3 NShTot=       10164 NBatch=         462 AvBLen=        22.0
 IPart=  0 NShTot=       10692 NBatch=         486 AvBLen=        22.0
 IPart=  2 NShTot=       10318 NBatch=         469 AvBLen=        22.0
 PrSmSu:  NxtVal=            417.
 --------------------------------------------------------
       Center         ----      EFG at Nuclei      ----
                      3XX-RR        3YY-RR        3ZZ-RR
 --------------------------------------------------------
     1   Atom       -0.058985     -0.075586      0.134571
     2   Atom       -0.013470      0.048320     -0.034851
     3   Atom        0.055074     -0.166376      0.111302
     4   Atom        0.023781      0.140647     -0.164428
     5   Atom       -0.068018      0.164770     -0.096751
     6   Atom        0.792247     -0.867546      0.075298
     7   Atom       -0.188463      0.082557      0.105906
     8   Atom        0.107160      0.099922     -0.207082
     9   Atom       -1.083802     -0.135193      1.218996
    10   Atom        0.146788     -0.295068      0.148280
    11   Atom       -0.080645      0.156641     -0.075995
    12   Atom        0.135376      0.150035     -0.285410
    13   Atom        0.086885      0.102206     -0.189091
    14   Atom        0.107955      0.136936     -0.244891
    15   Atom        0.146788     -0.303488      0.156700
    16   Atom       -0.118098     -0.028629      0.146727
    17   Atom        0.084506      0.190374     -0.274880
    18   Atom        0.094937     -0.008147     -0.086790
    19   Atom        0.124055     -0.196521      0.072466
    20   Atom       -0.100414      0.158544     -0.058129
    21   Atom        0.010667     -0.310660      0.299993
    22   Atom        0.173110     -0.265183      0.092073
 --------------------------------------------------------
                        XY            XZ            YZ
 --------------------------------------------------------
     1   Atom        0.218252      0.060772     -0.059629
     2   Atom       -0.039282      0.049092      0.011353
     3   Atom       -0.177327     -0.056454     -0.115929
     4   Atom        0.047047     -0.194780      0.075349
     5   Atom       -0.137405     -0.347727     -0.286917
     6   Atom       -0.271991     -1.140762      0.357875
     7   Atom       -0.145676     -0.152085     -0.066275
     8   Atom       -0.042605      0.123586      0.038235
     9   Atom        2.112543     -0.612895      0.578508
    10   Atom       -0.035953     -0.013709     -0.090012
    11   Atom        0.355657      0.068997      0.173397
    12   Atom       -0.014899      0.175362      0.077264
    13   Atom       -0.047125      0.114162      0.039047
    14   Atom       -0.028291      0.150718      0.067372
    15   Atom       -0.034735     -0.015554     -0.083011
    16   Atom        0.213948     -0.070254      0.045140
    17   Atom       -0.034315      0.147822      0.074392
    18   Atom        0.078318     -0.097981      0.194457
    19   Atom        0.079903      0.047428     -0.165772
    20   Atom       -0.078704      0.196474     -0.012573
    21   Atom        0.289619      0.675833      0.409455
    22   Atom        0.013683      0.038958      0.221556
 --------------------------------------------------------


 ---------------------------------------------------------------------------------
              Nuclear Quadrupole Coupling Constant in Principal Axis System
 ---------------------------------------------------------------------------------

       Atom             a.u.   MegaHertz   Gauss  10(-4) cm-1        Axes

              Baa    -0.5524     2.653     0.947     0.885 -0.5808 -0.4515  0.6774
    21 N(14)  Bbb    -0.4806     2.308     0.824     0.770 -0.5675  0.8211  0.0607
              Bcc     1.0330    -4.961    -1.770    -1.655  0.5836  0.3492  0.7331
 

 ---------------------------------------------------------------------------------

 No NMR shielding tensors so no spin-rotation constants.
 Leave Link  601 at Wed Nov 29 18:17:32 2017, MaxMem=  2147483648 cpu:         0.5
 FitSet:  NAtFit=    22 NAtPot=    22 NAtFrz=     0 MDM=    26 TotChg=   0.00000
 Merz-Kollman atomic radii used.
 Atom Element Radius
    1     1    1.20
    2     6    1.50
    3     1    1.20
    4     1    1.20
    5     6    1.50
    6     8    1.40
    7     1    1.20
    8     6    1.50
    9     9    1.35
   10     1    1.20
   11     6    1.50
   12     6    1.50
   13     6    1.50
   14     6    1.50
   15     1    1.20
   16     1    1.20
   17     6    1.50
   18     1    1.20
   19     1    1.20
   20     6    1.50
   21     7    1.50
   22     1    1.20
 Generate VDW surfaces: Layer= 4 Dens= 6 Start= 1.400 Inc= 0.200

 **********************************************************************

            Electrostatic Properties Using The SCF Density

 **********************************************************************

       Atomic Center    1 is at  -4.588789  0.308658  1.447365
       Atomic Center    2 is at  -3.847534 -0.462321  1.240333
       Atomic Center    3 is at  -4.350349 -1.372144  0.912032
       Atomic Center    4 is at  -3.276488 -0.669472  2.145209
       Atomic Center    5 is at  -2.870676 -0.011238  0.131949
       Atomic Center    6 is at  -2.996565  1.098247 -0.390676
       Atomic Center    7 is at   3.749941  1.370685  0.853576
       Atomic Center    8 is at   2.825882  0.970374  0.458693
       Atomic Center    9 is at   3.744136 -1.242228  0.471864
       Atomic Center   10 is at   1.820138  2.883379  0.413767
       Atomic Center   11 is at   2.708868 -0.411112  0.206423
       Atomic Center   12 is at   1.733450  1.825352  0.205815
       Atomic Center   13 is at   1.509444 -0.932608 -0.314863
       Atomic Center   14 is at   0.531007  1.302926 -0.315342
       Atomic Center   15 is at   1.431453 -1.993982 -0.498378
       Atomic Center   16 is at  -0.306319  1.962059 -0.506515
       Atomic Center   17 is at   0.419097 -0.077650 -0.588946
       Atomic Center   18 is at  -1.204899  0.022071 -1.985964
       Atomic Center   19 is at  -0.625049 -1.597677 -1.652724
       Atomic Center   20 is at  -0.857681 -0.639518 -1.189146
       Atomic Center   21 is at  -1.909192 -0.873134 -0.212563
       Atomic Center   22 is at  -1.921139 -1.792795  0.228715
      ESP Fit Center   23 is at  -4.588789  0.308658  3.127365
      ESP Fit Center   24 is at  -4.371381  0.685220  3.070120
      ESP Fit Center   25 is at  -4.806197  0.685220  3.070120
      ESP Fit Center   26 is at  -5.023605  0.308658  3.070120
      ESP Fit Center   27 is at  -4.806197 -0.067903  3.070120
      ESP Fit Center   28 is at  -4.168789  1.036120  2.902287
      ESP Fit Center   29 is at  -4.588789  1.148658  2.902287
      ESP Fit Center   30 is at  -5.008789  1.036120  2.902287
      ESP Fit Center   31 is at  -5.316250  0.728658  2.902287
      ESP Fit Center   32 is at  -5.428789  0.308658  2.902287
      ESP Fit Center   33 is at  -5.316250 -0.111342  2.902287
      ESP Fit Center   34 is at  -3.710891  1.108968  2.635304
      ESP Fit Center   35 is at  -4.059279  1.372058  2.635304
      ESP Fit Center   36 is at  -4.479179  1.491530  2.635304
      ESP Fit Center   37 is at  -4.913884  1.451249  2.635304
      ESP Fit Center   38 is at  -5.304682  1.256655  2.635304
      ESP Fit Center   39 is at  -5.598795  0.934028  2.635304
      ESP Fit Center   40 is at  -5.756501  0.526942  2.635304
      ESP Fit Center   41 is at  -5.756501  0.090375  2.635304
      ESP Fit Center   42 is at  -5.598795 -0.316711  2.635304
      ESP Fit Center   43 is at  -3.681659  1.446163  2.287365
      ESP Fit Center   44 is at  -4.057246  1.663008  2.287365
      ESP Fit Center   45 is at  -4.480062  1.759513  2.287365
      ESP Fit Center   46 is at  -4.912539  1.727103  2.287365
      ESP Fit Center   47 is at  -5.316250  1.568658  2.287365
      ESP Fit Center   48 is at  -5.655322  1.298257  2.287365
      ESP Fit Center   49 is at  -5.899629  0.939926  2.287365
      ESP Fit Center   50 is at  -6.027461  0.525503  2.287365
      ESP Fit Center   51 is at  -6.027461  0.091813  2.287365
      ESP Fit Center   52 is at  -5.899629 -0.322609  2.287365
      ESP Fit Center   53 is at  -5.655322 -0.680940  2.287365
      ESP Fit Center   54 is at  -3.777411  1.714006  1.882181
      ESP Fit Center   55 is at  -4.168789  1.876120  1.882181
      ESP Fit Center   56 is at  -4.588789  1.931414  1.882181
      ESP Fit Center   57 is at  -5.008789  1.876120  1.882181
      ESP Fit Center   58 is at  -5.400166  1.714006  1.882181
      ESP Fit Center   59 is at  -5.736250  1.456120  1.882181
      ESP Fit Center   60 is at  -5.994136  1.120036  1.882181
      ESP Fit Center   61 is at  -6.156250  0.728658  1.882181
      ESP Fit Center   62 is at  -6.211544  0.308658  1.882181
      ESP Fit Center   63 is at  -6.156250 -0.111342  1.882181
      ESP Fit Center   64 is at  -5.994136 -0.502719  1.882181
      ESP Fit Center   65 is at  -3.688600  1.727129  1.447365
      ESP Fit Center   66 is at  -4.069640  1.906433  1.447365
      ESP Fit Center   67 is at  -4.483301  1.985343  1.447365
      ESP Fit Center   68 is at  -4.903589  1.958901  1.447365
      ESP Fit Center   69 is at  -5.304098  1.828768  1.447365
      ESP Fit Center   70 is at  -5.659661  1.603121  1.447365
      ESP Fit Center   71 is at  -5.947937  1.296138  1.447365
      ESP Fit Center   72 is at  -6.150813  0.927108  1.447365
      ESP Fit Center   73 is at  -6.255541  0.519218  1.447365
      ESP Fit Center   74 is at  -6.255541  0.098099  1.447365
      ESP Fit Center   75 is at  -6.150813 -0.309791  1.447365
      ESP Fit Center   76 is at  -5.947937 -0.678821  1.447365
      ESP Fit Center   77 is at  -4.168789  1.876120  1.012549
      ESP Fit Center   78 is at  -4.588789  1.931414  1.012549
      ESP Fit Center   79 is at  -5.008789  1.876120  1.012549
      ESP Fit Center   80 is at  -5.400166  1.714006  1.012549
      ESP Fit Center   81 is at  -5.736250  1.456120  1.012549
      ESP Fit Center   82 is at  -5.994136  1.120036  1.012549
      ESP Fit Center   83 is at  -6.156250  0.728658  1.012549
      ESP Fit Center   84 is at  -6.211544  0.308658  1.012549
      ESP Fit Center   85 is at  -6.156250 -0.111342  1.012549
      ESP Fit Center   86 is at  -5.994136 -0.502719  1.012549
      ESP Fit Center   87 is at  -4.912539  1.727103  0.607365
      ESP Fit Center   88 is at  -5.316250  1.568658  0.607365
      ESP Fit Center   89 is at  -5.655322  1.298257  0.607365
      ESP Fit Center   90 is at  -5.899629  0.939926  0.607365
      ESP Fit Center   91 is at  -6.027461  0.525503  0.607365
      ESP Fit Center   92 is at  -6.027461  0.091813  0.607365
      ESP Fit Center   93 is at  -5.899629 -0.322609  0.607365
      ESP Fit Center   94 is at  -4.913884  1.451249  0.259425
      ESP Fit Center   95 is at  -5.304682  1.256655  0.259425
      ESP Fit Center   96 is at  -5.598795  0.934028  0.259425
      ESP Fit Center   97 is at  -5.756501  0.526942  0.259425
      ESP Fit Center   98 is at  -5.756501  0.090375  0.259425
      ESP Fit Center   99 is at  -5.008789  1.036120 -0.007558
      ESP Fit Center  100 is at  -5.316250  0.728658 -0.007558
      ESP Fit Center  101 is at  -5.428789  0.308658 -0.007558
      ESP Fit Center  102 is at  -4.249352  0.233647  3.180480
      ESP Fit Center  103 is at  -4.543503 -0.060504  3.180480
      ESP Fit Center  104 is at  -4.651169 -0.462321  3.180480
      ESP Fit Center  105 is at  -4.994367 -0.247941  2.986419
      ESP Fit Center  106 is at  -4.994367 -0.676701  2.986419
      ESP Fit Center  107 is at  -4.839480 -1.076508  2.986419
      ESP Fit Center  108 is at  -4.550627 -1.393366  2.986419
      ESP Fit Center  109 is at  -3.636208  1.007488  2.725257
      ESP Fit Center  110 is at  -5.272309 -0.880673  2.725257
      ESP Fit Center  111 is at  -5.096732 -1.265132  2.725257
      ESP Fit Center  112 is at  -4.819953 -1.584552  2.725257
      ESP Fit Center  113 is at  -4.464394 -1.813056  2.725257
      ESP Fit Center  114 is at  -2.855644  0.974679  2.407031
      ESP Fit Center  115 is at  -3.228364  1.170298  2.407031
      ESP Fit Center  116 is at  -5.542882 -0.880187  2.407031
      ESP Fit Center  117 is at  -5.393617 -1.273768  2.407031
      ESP Fit Center  118 is at  -5.154499 -1.620191  2.407031
      ESP Fit Center  119 is at  -4.058002 -2.195677  2.407031
      ESP Fit Center  120 is at  -2.302997  0.711806  2.043968
      ESP Fit Center  121 is at  -2.591510  1.016385  2.043968
      ESP Fit Center  122 is at  -2.938753  1.251822  2.043968
      ESP Fit Center  123 is at  -3.328490  1.407107  2.043968
      ESP Fit Center  124 is at  -5.686121 -1.081813  2.043968
      ESP Fit Center  125 is at  -3.132207  1.469119  1.650023
      ESP Fit Center  126 is at  -3.132207 -2.393762  1.650023
      ESP Fit Center  127 is at  -2.758054 -2.210231  1.650023
      ESP Fit Center  128 is at  -5.896616 -0.670693  0.830644
      ESP Fit Center  129 is at  -5.542882 -0.044456  0.073636
      ESP Fit Center  130 is at  -5.593620 -0.462321  0.073636
      ESP Fit Center  131 is at  -5.096732  0.340489 -0.244591
      ESP Fit Center  132 is at  -5.272309 -0.043970 -0.244591
      ESP Fit Center  133 is at  -5.332458 -0.462321 -0.244591
      ESP Fit Center  134 is at  -4.994367 -0.247941 -0.505753
      ESP Fit Center  135 is at  -4.994367 -0.676701 -0.505753
      ESP Fit Center  136 is at  -5.077810 -1.792144  2.366954
      ESP Fit Center  137 is at  -4.770349 -2.099605  2.366954
      ESP Fit Center  138 is at  -4.350349 -2.212144  2.366954
      ESP Fit Center  139 is at  -5.518061 -1.590427  2.099971
      ESP Fit Center  140 is at  -5.360355 -1.997513  2.099971
      ESP Fit Center  141 is at  -5.066242 -2.320140  2.099971
      ESP Fit Center  142 is at  -4.675444 -2.514734  2.099971
      ESP Fit Center  143 is at  -4.240739 -2.555016  2.099971
      ESP Fit Center  144 is at  -3.820839 -2.435543  2.099971
      ESP Fit Center  145 is at  -5.789021 -1.155299  1.752032
      ESP Fit Center  146 is at  -5.789021 -1.588989  1.752032
      ESP Fit Center  147 is at  -5.661189 -2.003411  1.752032
      ESP Fit Center  148 is at  -5.416882 -2.361742  1.752032
      ESP Fit Center  149 is at  -5.077810 -2.632144  1.752032
      ESP Fit Center  150 is at  -4.674099 -2.790588  1.752032
      ESP Fit Center  151 is at  -4.241622 -2.822998  1.752032
      ESP Fit Center  152 is at  -3.818806 -2.726493  1.752032
      ESP Fit Center  153 is at  -3.443219 -2.509648  1.752032
      ESP Fit Center  154 is at  -5.917810 -0.952144  1.346848
      ESP Fit Center  155 is at  -5.973104 -1.372144  1.346848
      ESP Fit Center  156 is at  -5.917810 -1.792144  1.346848
      ESP Fit Center  157 is at  -5.755696 -2.183521  1.346848
      ESP Fit Center  158 is at  -5.497810 -2.519605  1.346848
      ESP Fit Center  159 is at  -5.161726 -2.777491  1.346848
      ESP Fit Center  160 is at  -4.770349 -2.939605  1.346848
      ESP Fit Center  161 is at  -4.350349 -2.994899  1.346848
      ESP Fit Center  162 is at  -3.930349 -2.939605  1.346848
      ESP Fit Center  163 is at  -3.538971 -2.777491  1.346848
      ESP Fit Center  164 is at  -3.202887 -2.519605  1.346848
      ESP Fit Center  165 is at  -5.912373 -0.753694  0.912032
      ESP Fit Center  166 is at  -6.017101 -1.161584  0.912032
      ESP Fit Center  167 is at  -6.017101 -1.582704  0.912032
      ESP Fit Center  168 is at  -5.912373 -1.990593  0.912032
      ESP Fit Center  169 is at  -5.709497 -2.359623  0.912032
      ESP Fit Center  170 is at  -5.421221 -2.666606  0.912032
      ESP Fit Center  171 is at  -5.065658 -2.892253  0.912032
      ESP Fit Center  172 is at  -4.665149 -3.022386  0.912032
      ESP Fit Center  173 is at  -4.244861 -3.048829  0.912032
      ESP Fit Center  174 is at  -3.831200 -2.969919  0.912032
      ESP Fit Center  175 is at  -3.450160 -2.790615  0.912032
      ESP Fit Center  176 is at  -5.917810 -0.952144  0.477216
      ESP Fit Center  177 is at  -5.973104 -1.372144  0.477216
      ESP Fit Center  178 is at  -5.917810 -1.792144  0.477216
      ESP Fit Center  179 is at  -5.755696 -2.183521  0.477216
      ESP Fit Center  180 is at  -5.497810 -2.519605  0.477216
      ESP Fit Center  181 is at  -5.161726 -2.777491  0.477216
      ESP Fit Center  182 is at  -4.770349 -2.939605  0.477216
      ESP Fit Center  183 is at  -4.350349 -2.994899  0.477216
      ESP Fit Center  184 is at  -3.930349 -2.939605  0.477216
      ESP Fit Center  185 is at  -3.538971 -2.777491  0.477216
      ESP Fit Center  186 is at  -5.661189 -0.740876  0.072032
      ESP Fit Center  187 is at  -5.789021 -1.155299  0.072032
      ESP Fit Center  188 is at  -5.789021 -1.588989  0.072032
      ESP Fit Center  189 is at  -5.661189 -2.003411  0.072032
      ESP Fit Center  190 is at  -5.416882 -2.361742  0.072032
      ESP Fit Center  191 is at  -5.077810 -2.632144  0.072032
      ESP Fit Center  192 is at  -4.674099 -2.790588  0.072032
      ESP Fit Center  193 is at  -4.241622 -2.822998  0.072032
      ESP Fit Center  194 is at  -3.818806 -2.726493  0.072032
      ESP Fit Center  195 is at  -3.443219 -2.509648  0.072032
      ESP Fit Center  196 is at  -5.360355 -0.746774 -0.275908
      ESP Fit Center  197 is at  -5.518061 -1.153860 -0.275908
      ESP Fit Center  198 is at  -5.518061 -1.590427 -0.275908
      ESP Fit Center  199 is at  -5.360355 -1.997513 -0.275908
      ESP Fit Center  200 is at  -5.066242 -2.320140 -0.275908
      ESP Fit Center  201 is at  -4.675444 -2.514734 -0.275908
      ESP Fit Center  202 is at  -4.240739 -2.555016 -0.275908
      ESP Fit Center  203 is at  -3.820839 -2.435543 -0.275908
      ESP Fit Center  204 is at  -5.077810 -0.952144 -0.542891
      ESP Fit Center  205 is at  -5.190349 -1.372144 -0.542891
      ESP Fit Center  206 is at  -5.077810 -1.792144 -0.542891
      ESP Fit Center  207 is at  -4.770349 -2.099605 -0.542891
      ESP Fit Center  208 is at  -4.350349 -2.212144 -0.542891
      ESP Fit Center  209 is at  -3.930349 -2.099605 -0.542891
      ESP Fit Center  210 is at  -4.567757 -0.995582 -0.710724
      ESP Fit Center  211 is at  -4.785165 -1.372144 -0.710724
      ESP Fit Center  212 is at  -4.567757 -1.748705 -0.710724
      ESP Fit Center  213 is at  -4.132941 -1.748705 -0.710724
      ESP Fit Center  214 is at  -4.350349 -1.372144 -0.767968
      ESP Fit Center  215 is at  -3.276488 -0.669472  3.825209
      ESP Fit Center  216 is at  -2.841672 -0.669472  3.767965
      ESP Fit Center  217 is at  -3.059080 -0.292911  3.767965
      ESP Fit Center  218 is at  -3.493896 -0.292911  3.767965
      ESP Fit Center  219 is at  -3.711304 -0.669472  3.767965
      ESP Fit Center  220 is at  -3.493896 -1.046034  3.767965
      ESP Fit Center  221 is at  -3.059080 -1.046034  3.767965
      ESP Fit Center  222 is at  -2.436488 -0.669472  3.600132
      ESP Fit Center  223 is at  -2.549027 -0.249472  3.600132
      ESP Fit Center  224 is at  -2.856488  0.057989  3.600132
      ESP Fit Center  225 is at  -3.276488  0.170528  3.600132
      ESP Fit Center  226 is at  -3.696488  0.057989  3.600132
      ESP Fit Center  227 is at  -4.003949 -0.249472  3.600132
      ESP Fit Center  228 is at  -4.116488 -0.669472  3.600132
      ESP Fit Center  229 is at  -4.003949 -1.089472  3.600132
      ESP Fit Center  230 is at  -3.696488 -1.396934  3.600132
      ESP Fit Center  231 is at  -3.276488 -1.509472  3.600132
      ESP Fit Center  232 is at  -2.856488 -1.396934  3.600132
      ESP Fit Center  233 is at  -2.549027 -1.089472  3.600132
      ESP Fit Center  234 is at  -2.088549 -0.669472  3.333149
      ESP Fit Center  235 is at  -2.168768 -0.240339  3.333149
      ESP Fit Center  236 is at  -2.398590  0.130837  3.333149
      ESP Fit Center  237 is at  -2.746978  0.393927  3.333149
      ESP Fit Center  238 is at  -3.166879  0.513399  3.333149
      ESP Fit Center  239 is at  -3.601583  0.473118  3.333149
      ESP Fit Center  240 is at  -3.992382  0.278524  3.333149
      ESP Fit Center  241 is at  -4.286495 -0.044103  3.333149
      ESP Fit Center  242 is at  -4.444201 -0.451189  3.333149
      ESP Fit Center  243 is at  -4.444201 -0.887756  3.333149
      ESP Fit Center  244 is at  -4.286495 -1.294842  3.333149
      ESP Fit Center  245 is at  -3.992382 -1.617468  3.333149
      ESP Fit Center  246 is at  -3.601583 -1.812063  3.333149
      ESP Fit Center  247 is at  -3.166879 -1.852344  3.333149
      ESP Fit Center  248 is at  -2.746978 -1.732872  3.333149
      ESP Fit Center  249 is at  -2.398590 -1.469782  3.333149
      ESP Fit Center  250 is at  -2.168768 -1.098606  3.333149
      ESP Fit Center  251 is at  -1.821565 -0.669472  2.985209
      ESP Fit Center  252 is at  -1.886204 -0.240626  2.985209
      ESP Fit Center  253 is at  -2.074375  0.150115  2.985209
      ESP Fit Center  254 is at  -2.369359  0.468032  2.985209
      ESP Fit Center  255 is at  -2.744945  0.684877  2.985209
      ESP Fit Center  256 is at  -3.167762  0.781382  2.985209
      ESP Fit Center  257 is at  -3.600239  0.748972  2.985209
      ESP Fit Center  258 is at  -4.343022 -1.659071  2.985209
      ESP Fit Center  259 is at  -4.003949 -1.929472  2.985209
      ESP Fit Center  260 is at  -3.600239 -2.087917  2.985209
      ESP Fit Center  261 is at  -3.167762 -2.120327  2.985209
      ESP Fit Center  262 is at  -2.744945 -2.023822  2.985209
      ESP Fit Center  263 is at  -2.369359 -1.806977  2.985209
      ESP Fit Center  264 is at  -2.074375 -1.489059  2.985209
      ESP Fit Center  265 is at  -1.886204 -1.098318  2.985209
      ESP Fit Center  266 is at  -1.653733 -0.669472  2.580025
      ESP Fit Center  267 is at  -1.709027 -0.249472  2.580025
      ESP Fit Center  268 is at  -1.871141  0.141905  2.580025
      ESP Fit Center  269 is at  -2.129027  0.477989  2.580025
      ESP Fit Center  270 is at  -2.465110  0.735875  2.580025
      ESP Fit Center  271 is at  -2.856488  0.897989  2.580025
      ESP Fit Center  272 is at  -4.087866 -2.074820  2.580025
      ESP Fit Center  273 is at  -3.696488 -2.236934  2.580025
      ESP Fit Center  274 is at  -3.276488 -2.292228  2.580025
      ESP Fit Center  275 is at  -2.856488 -2.236934  2.580025
      ESP Fit Center  276 is at  -2.465110 -2.074820  2.580025
      ESP Fit Center  277 is at  -2.129027 -1.816934  2.580025
      ESP Fit Center  278 is at  -1.871141 -1.480850  2.580025
      ESP Fit Center  279 is at  -1.709027 -1.089472  2.580025
      ESP Fit Center  280 is at  -1.596488 -0.669472  2.145209
      ESP Fit Center  281 is at  -1.649268 -0.251673  2.145209
      ESP Fit Center  282 is at  -1.804293  0.139874  2.145209
      ESP Fit Center  283 is at  -2.051821  0.480567  2.145209
      ESP Fit Center  284 is at  -2.376299  0.748999  2.145209
      ESP Fit Center  285 is at  -3.171000 -2.346157  2.145209
      ESP Fit Center  286 is at  -2.757340 -2.267247  2.145209
      ESP Fit Center  287 is at  -2.376299 -2.087943  2.145209
      ESP Fit Center  288 is at  -2.051821 -1.819511  2.145209
      ESP Fit Center  289 is at  -1.804293 -1.478819  2.145209
      ESP Fit Center  290 is at  -1.649268 -1.087271  2.145209
      ESP Fit Center  291 is at  -1.703979 -0.011238  1.878035
      ESP Fit Center  292 is at  -1.782763  0.410222  1.878035
      ESP Fit Center  293 is at  -2.008476  0.774761  1.878035
      ESP Fit Center  294 is at  -2.350634  1.033147  1.878035
      ESP Fit Center  295 is at  -1.445902  0.407114  1.616873
      ESP Fit Center  296 is at  -1.621478  0.791573  1.616873
      ESP Fit Center  297 is at  -1.898258  1.110993  1.616873
      ESP Fit Center  298 is at  -2.253816  1.339497  1.616873
      ESP Fit Center  299 is at  -2.659349  1.458572  1.616873
      ESP Fit Center  300 is at  -3.082003  1.458572  1.616873
      ESP Fit Center  301 is at  -1.175328  0.406628  1.298646
      ESP Fit Center  302 is at  -1.324594  0.800209  1.298646
      ESP Fit Center  303 is at  -1.563712  1.146632  1.298646
      ESP Fit Center  304 is at  -1.878786  1.425763  1.298646
      ESP Fit Center  305 is at  -1.109846  0.803409  0.935584
      ESP Fit Center  306 is at  -1.326139  1.162889  0.935584
      ESP Fit Center  307 is at  -4.799450  0.198529 -0.671686
      ESP Fit Center  308 is at  -4.799450 -0.221004 -0.671686
      ESP Fit Center  309 is at  -4.709263 -0.630729 -0.671686
      ESP Fit Center  310 is at  -4.616762 -0.011238 -1.034749
      ESP Fit Center  311 is at  -4.566024 -0.429103 -1.034749
      ESP Fit Center  312 is at  -4.416759 -0.822684 -1.034749
      ESP Fit Center  313 is at  -4.177641 -1.169107 -1.034749
      ESP Fit Center  314 is at  -3.862566 -1.448238 -1.034749
      ESP Fit Center  315 is at  -4.355600 -0.011238 -1.352975
      ESP Fit Center  316 is at  -4.295451 -0.429589 -1.352975
      ESP Fit Center  317 is at  -4.119874 -0.814048 -1.352975
      ESP Fit Center  318 is at  -3.843095 -1.133468 -1.352975
      ESP Fit Center  319 is at  -4.017508 -0.225618 -1.614137
      ESP Fit Center  320 is at  -3.862622 -0.625425 -1.614137
      ESP Fit Center  321 is at  -3.573769 -0.942282 -1.614137
      ESP Fit Center  322 is at  -3.566645 -0.413055 -1.808198
      ESP Fit Center  323 is at  -3.272494 -0.707206 -1.808198
      ESP Fit Center  324 is at  -3.075521 -0.366039 -1.927700
      ESP Fit Center  325 is at  -2.597963  1.788645  1.399873
      ESP Fit Center  326 is at  -2.996565  1.895450  1.399873
      ESP Fit Center  327 is at  -3.395167  1.788645  1.399873
      ESP Fit Center  328 is at  -2.145183  1.874384  1.194997
      ESP Fit Center  329 is at  -2.483048  2.129528  1.194997
      ESP Fit Center  330 is at  -2.890267  2.245391  1.194997
      ESP Fit Center  331 is at  -3.311841  2.206327  1.194997
      ESP Fit Center  332 is at  -3.690836  2.017610  1.194997
      ESP Fit Center  333 is at  -1.599002  1.508608  0.920820
      ESP Fit Center  334 is at  -1.771226  1.885725  0.920820
      ESP Fit Center  335 is at  -2.042719  2.199044  0.920820
      ESP Fit Center  336 is at  -2.391487  2.423184  0.920820
      ESP Fit Center  337 is at  -2.789275  2.539985  0.920820
      ESP Fit Center  338 is at  -3.203856  2.539985  0.920820
      ESP Fit Center  339 is at  -3.601644  2.423184  0.920820
      ESP Fit Center  340 is at  -3.950412  2.199044  0.920820
      ESP Fit Center  341 is at  -4.221905  1.885725  0.920820
      ESP Fit Center  342 is at  -1.759207  2.260204  0.589324
      ESP Fit Center  343 is at  -2.087048  2.531417  0.589324
      ESP Fit Center  344 is at  -2.472037  2.712579  0.589324
      ESP Fit Center  345 is at  -2.889984  2.792307  0.589324
      ESP Fit Center  346 is at  -3.314628  2.765591  0.589324
      ESP Fit Center  347 is at  -3.719287  2.634109  0.589324
      ESP Fit Center  348 is at  -4.078535  2.406123  0.589324
      ESP Fit Center  349 is at  -4.369799  2.095959  0.589324
      ESP Fit Center  350 is at  -1.834336  2.555636  0.214997
      ESP Fit Center  351 is at  -2.187775  2.777716  0.214997
      ESP Fit Center  352 is at  -2.581770  2.915581  0.214997
      ESP Fit Center  353 is at  -2.996565  2.962317  0.214997
      ESP Fit Center  354 is at  -3.411360  2.915581  0.214997
      ESP Fit Center  355 is at  -3.805355  2.777716  0.214997
      ESP Fit Center  356 is at  -4.158794  2.555636  0.214997
      ESP Fit Center  357 is at  -4.453954  2.260476  0.214997
      ESP Fit Center  358 is at  -4.676035  1.907037  0.214997
      ESP Fit Center  359 is at  -4.813900  1.513041  0.214997
      ESP Fit Center  360 is at  -2.083514  2.820444 -0.185800
      ESP Fit Center  361 is at  -2.475082  2.976459 -0.185800
      ESP Fit Center  362 is at  -2.891034  3.044651 -0.185800
      ESP Fit Center  363 is at  -3.311921  3.021831 -0.185800
      ESP Fit Center  364 is at  -3.718062  2.909067 -0.185800
      ESP Fit Center  365 is at  -4.090466  2.711630 -0.185800
      ESP Fit Center  366 is at  -4.411721  2.438754 -0.185800
      ESP Fit Center  367 is at  -4.666805  2.103197 -0.185800
      ESP Fit Center  368 is at  -4.843790  1.720649 -0.185800
      ESP Fit Center  369 is at  -4.934402  1.308999 -0.185800
      ESP Fit Center  370 is at  -4.934402  0.887494 -0.185800
      ESP Fit Center  371 is at  -2.083514  2.820444 -0.595552
      ESP Fit Center  372 is at  -2.475082  2.976459 -0.595552
      ESP Fit Center  373 is at  -2.891034  3.044651 -0.595552
      ESP Fit Center  374 is at  -3.311921  3.021831 -0.595552
      ESP Fit Center  375 is at  -3.718062  2.909067 -0.595552
      ESP Fit Center  376 is at  -4.090466  2.711630 -0.595552
      ESP Fit Center  377 is at  -4.411721  2.438754 -0.595552
      ESP Fit Center  378 is at  -4.666805  2.103197 -0.595552
      ESP Fit Center  379 is at  -4.843790  1.720649 -0.595552
      ESP Fit Center  380 is at  -4.934402  1.308999 -0.595552
      ESP Fit Center  381 is at  -4.934402  0.887494 -0.595552
      ESP Fit Center  382 is at  -4.843790  0.475844 -0.595552
      ESP Fit Center  383 is at  -1.834336  2.555636 -0.996349
      ESP Fit Center  384 is at  -2.187775  2.777716 -0.996349
      ESP Fit Center  385 is at  -2.581770  2.915581 -0.996349
      ESP Fit Center  386 is at  -2.996565  2.962317 -0.996349
      ESP Fit Center  387 is at  -3.411360  2.915581 -0.996349
      ESP Fit Center  388 is at  -3.805355  2.777716 -0.996349
      ESP Fit Center  389 is at  -4.158794  2.555636 -0.996349
      ESP Fit Center  390 is at  -4.453954  2.260476 -0.996349
      ESP Fit Center  391 is at  -4.676035  1.907037 -0.996349
      ESP Fit Center  392 is at  -4.813900  1.513041 -0.996349
      ESP Fit Center  393 is at  -4.860636  1.098247 -0.996349
      ESP Fit Center  394 is at  -4.813900  0.683452 -0.996349
      ESP Fit Center  395 is at  -4.676035  0.289457 -0.996349
      ESP Fit Center  396 is at  -1.759207  2.260204 -1.370676
      ESP Fit Center  397 is at  -2.087048  2.531417 -1.370676
      ESP Fit Center  398 is at  -2.472037  2.712579 -1.370676
      ESP Fit Center  399 is at  -2.889984  2.792307 -1.370676
      ESP Fit Center  400 is at  -3.314628  2.765591 -1.370676
      ESP Fit Center  401 is at  -3.719287  2.634109 -1.370676
      ESP Fit Center  402 is at  -4.078535  2.406123 -1.370676
      ESP Fit Center  403 is at  -4.369799  2.095959 -1.370676
      ESP Fit Center  404 is at  -4.574777  1.723105 -1.370676
      ESP Fit Center  405 is at  -4.680590  1.310988 -1.370676
      ESP Fit Center  406 is at  -4.680590  0.885505 -1.370676
      ESP Fit Center  407 is at  -4.574777  0.473388 -1.370676
      ESP Fit Center  408 is at  -4.369799  0.100534 -1.370676
      ESP Fit Center  409 is at  -1.771226  1.885725 -1.702172
      ESP Fit Center  410 is at  -2.042719  2.199044 -1.702172
      ESP Fit Center  411 is at  -2.391487  2.423184 -1.702172
      ESP Fit Center  412 is at  -2.789275  2.539985 -1.702172
      ESP Fit Center  413 is at  -3.203856  2.539985 -1.702172
      ESP Fit Center  414 is at  -3.601644  2.423184 -1.702172
      ESP Fit Center  415 is at  -3.950412  2.199044 -1.702172
      ESP Fit Center  416 is at  -4.221905  1.885725 -1.702172
      ESP Fit Center  417 is at  -4.394128  1.508608 -1.702172
      ESP Fit Center  418 is at  -4.453129  1.098247 -1.702172
      ESP Fit Center  419 is at  -4.394128  0.687885 -1.702172
      ESP Fit Center  420 is at  -4.221905  0.310769 -1.702172
      ESP Fit Center  421 is at  -3.950412 -0.002551 -1.702172
      ESP Fit Center  422 is at  -2.145183  1.874384 -1.976349
      ESP Fit Center  423 is at  -2.483048  2.129528 -1.976349
      ESP Fit Center  424 is at  -2.890267  2.245391 -1.976349
      ESP Fit Center  425 is at  -3.311841  2.206327 -1.976349
      ESP Fit Center  426 is at  -3.690836  2.017610 -1.976349
      ESP Fit Center  427 is at  -3.976066  1.704728 -1.976349
      ESP Fit Center  428 is at  -4.129008  1.309937 -1.976349
      ESP Fit Center  429 is at  -4.129008  0.886556 -1.976349
      ESP Fit Center  430 is at  -3.976066  0.491766 -1.976349
      ESP Fit Center  431 is at  -3.690836  0.178884 -1.976349
      ESP Fit Center  432 is at  -3.311841 -0.009833 -1.976349
      ESP Fit Center  433 is at  -2.890267 -0.048898 -1.976349
      ESP Fit Center  434 is at  -2.306166  1.496849 -2.181225
      ESP Fit Center  435 is at  -2.597963  1.788645 -2.181225
      ESP Fit Center  436 is at  -2.996565  1.895450 -2.181225
      ESP Fit Center  437 is at  -3.395167  1.788645 -2.181225
      ESP Fit Center  438 is at  -3.686964  1.496849 -2.181225
      ESP Fit Center  439 is at  -3.793769  1.098247 -2.181225
      ESP Fit Center  440 is at  -3.686964  0.699645 -2.181225
      ESP Fit Center  441 is at  -3.395167  0.407848 -2.181225
      ESP Fit Center  442 is at  -2.996565  0.301043 -2.181225
      ESP Fit Center  443 is at  -2.589058  1.098247 -2.307845
      ESP Fit Center  444 is at  -2.792812  1.451158 -2.307845
      ESP Fit Center  445 is at  -3.200319  1.451158 -2.307845
      ESP Fit Center  446 is at  -3.404072  1.098247 -2.307845
      ESP Fit Center  447 is at  -3.200319  0.745335 -2.307845
      ESP Fit Center  448 is at  -2.792812  0.745335 -2.307845
      ESP Fit Center  449 is at  -2.996565  1.098247 -2.350676
      ESP Fit Center  450 is at   3.749941  1.370685  2.533576
      ESP Fit Center  451 is at   4.184757  1.370685  2.476331
      ESP Fit Center  452 is at   3.967349  1.747247  2.476331
      ESP Fit Center  453 is at   3.532533  1.747247  2.476331
      ESP Fit Center  454 is at   3.315125  1.370685  2.476331
      ESP Fit Center  455 is at   3.532533  0.994123  2.476331
      ESP Fit Center  456 is at   3.967349  0.994123  2.476331
      ESP Fit Center  457 is at   4.589941  1.370685  2.308498
      ESP Fit Center  458 is at   4.477402  1.790685  2.308498
      ESP Fit Center  459 is at   4.169941  2.098146  2.308498
      ESP Fit Center  460 is at   3.749941  2.210685  2.308498
      ESP Fit Center  461 is at   3.329941  2.098146  2.308498
      ESP Fit Center  462 is at   3.749941  0.530685  2.308498
      ESP Fit Center  463 is at   4.169941  0.643224  2.308498
      ESP Fit Center  464 is at   4.477402  0.950685  2.308498
      ESP Fit Center  465 is at   4.937880  1.370685  2.041515
      ESP Fit Center  466 is at   4.857661  1.799818  2.041515
      ESP Fit Center  467 is at   4.627839  2.170995  2.041515
      ESP Fit Center  468 is at   4.279451  2.434085  2.041515
      ESP Fit Center  469 is at   3.859550  2.553557  2.041515
      ESP Fit Center  470 is at   3.424846  2.513276  2.041515
      ESP Fit Center  471 is at   4.279451  0.307285  2.041515
      ESP Fit Center  472 is at   4.627839  0.570375  2.041515
      ESP Fit Center  473 is at   4.857661  0.941552  2.041515
      ESP Fit Center  474 is at   5.204864  1.370685  1.693576
      ESP Fit Center  475 is at   5.140225  1.799531  1.693576
      ESP Fit Center  476 is at   4.952054  2.190272  1.693576
      ESP Fit Center  477 is at   4.657070  2.508189  1.693576
      ESP Fit Center  478 is at   4.281484  2.725034  1.693576
      ESP Fit Center  479 is at   3.858667  2.821539  1.693576
      ESP Fit Center  480 is at   3.426190  2.789130  1.693576
      ESP Fit Center  481 is at   4.657070  0.233181  1.693576
      ESP Fit Center  482 is at   4.952054  0.551098  1.693576
      ESP Fit Center  483 is at   5.140225  0.941839  1.693576
      ESP Fit Center  484 is at   5.372696  1.370685  1.288392
      ESP Fit Center  485 is at   5.317402  1.790685  1.288392
      ESP Fit Center  486 is at   5.155288  2.182063  1.288392
      ESP Fit Center  487 is at   4.897402  2.518146  1.288392
      ESP Fit Center  488 is at   4.561319  2.776032  1.288392
      ESP Fit Center  489 is at   4.169941  2.938146  1.288392
      ESP Fit Center  490 is at   3.749941  2.993440  1.288392
      ESP Fit Center  491 is at   3.329941  2.938146  1.288392
      ESP Fit Center  492 is at   4.897402  0.223224  1.288392
      ESP Fit Center  493 is at   5.155288  0.559307  1.288392
      ESP Fit Center  494 is at   5.317402  0.950685  1.288392
      ESP Fit Center  495 is at   5.429941  1.370685  0.853576
      ESP Fit Center  496 is at   5.377161  1.788484  0.853576
      ESP Fit Center  497 is at   5.222136  2.180031  0.853576
      ESP Fit Center  498 is at   4.974608  2.520724  0.853576
      ESP Fit Center  499 is at   4.650130  2.789156  0.853576
      ESP Fit Center  500 is at   4.269089  2.968460  0.853576
      ESP Fit Center  501 is at   3.855429  3.047370  0.853576
      ESP Fit Center  502 is at   4.974608  0.220646  0.853576
      ESP Fit Center  503 is at   5.222136  0.561339  0.853576
      ESP Fit Center  504 is at   5.377161  0.952886  0.853576
      ESP Fit Center  505 is at   5.372696  1.370685  0.418760
      ESP Fit Center  506 is at   5.317402  1.790685  0.418760
      ESP Fit Center  507 is at   5.155288  2.182063  0.418760
      ESP Fit Center  508 is at   4.897402  2.518146  0.418760
      ESP Fit Center  509 is at   4.561319  2.776032  0.418760
      ESP Fit Center  510 is at   4.169941  2.938146  0.418760
      ESP Fit Center  511 is at   3.749941  2.993440  0.418760
      ESP Fit Center  512 is at   5.155288  0.559307  0.418760
      ESP Fit Center  513 is at   5.317402  0.950685  0.418760
[...]
 5826 Fit      -0.007735
 5827 Fit      -0.008169
 5828 Fit      -0.008303
 5829 Fit      -0.008887
 5830 Fit      -0.009812
 5831 Fit      -0.007165
 5832 Fit      -0.007820
 5833 Fit      -0.008576
 5834 Fit      -0.009498
 5835 Fit      -0.010736
 5836 Fit      -0.012018
 5837 Fit      -0.007865
 5838 Fit      -0.009081
 5839 Fit      -0.010303
 5840 Fit      -0.003883
 5841 Fit      -0.002425
 5842 Fit      -0.002656
 5843 Fit      -0.003809
 5844 Fit      -0.004977
 5845 Fit      -0.000669
 5846 Fit      -0.000757
 5847 Fit      -0.001486
 5848 Fit      -0.002526
 5849 Fit      -0.003597
 5850 Fit      -0.004633
 5851 Fit      -0.005666
 5852 Fit       0.001300
 5853 Fit       0.001154
 5854 Fit       0.000565
 5855 Fit      -0.000353
 5856 Fit      -0.001411
 5857 Fit      -0.002425
 5858 Fit      -0.003311
 5859 Fit      -0.004121
 5860 Fit      -0.004974
 5861 Fit      -0.005958
 5862 Fit       0.003363
 5863 Fit       0.003077
 5864 Fit       0.002456
 5865 Fit       0.001517
 5866 Fit       0.000376
 5867 Fit      -0.000791
 5868 Fit      -0.001825
 5869 Fit      -0.002648
 5870 Fit      -0.003306
 5871 Fit      -0.003936
 5872 Fit      -0.004659
 5873 Fit      -0.005571
 5874 Fit       0.005427
 5875 Fit       0.002718
 5876 Fit       0.001466
 5877 Fit       0.000206
 5878 Fit      -0.000925
 5879 Fit      -0.001820
 5880 Fit       0.007540
 5881 Fit       0.001541
 5882 Fit       0.000159
 5883 Fit      -0.001009
 5884 Fit       0.001361
 5885 Fit      -0.000108
 5886 Fit       0.001995
 5887 Fit       0.000302
 5888 Fit       0.003371
 5889 Fit       0.000359
 5890 Fit       0.001336
 5891 Fit       0.002218
 5892 Fit      -0.001568
 5893 Fit      -0.000536
 5894 Fit       0.000320
 5895 Fit      -0.000394
 5896 Fit      -0.004335
 5897 Fit      -0.003129
 5898 Fit      -0.002173
 5899 Fit      -0.001468
 5900 Fit      -0.001050
 5901 Fit      -0.000971
 5902 Fit      -0.001259
 5903 Fit      -0.001893
 5904 Fit      -0.006943
 5905 Fit      -0.005613
 5906 Fit      -0.004555
 5907 Fit      -0.003792
 5908 Fit      -0.003352
 5909 Fit      -0.003272
 5910 Fit      -0.003570
 5911 Fit      -0.004231
 5912 Fit      -0.009098
 5913 Fit      -0.007683
 5914 Fit      -0.006540
 5915 Fit      -0.005766
 5916 Fit      -0.005420
 5917 Fit      -0.005543
 5918 Fit      -0.006138
 5919 Fit      -0.010982
 5920 Fit      -0.009662
 5921 Fit      -0.008488
 5922 Fit      -0.007687
 5923 Fit      -0.007394
 5924 Fit      -0.007672
 5925 Fit      -0.013072
 5926 Fit      -0.012171
 5927 Fit      -0.011345
 5928 Fit      -0.010156
 5929 Fit      -0.009348
 5930 Fit      -0.009261
 5931 Fit      -0.012471
 5932 Fit      -0.011726
 5933 Fit      -0.010829
 5934 Fit      -0.000781
 5935 Fit      -0.000140
 5936 Fit      -0.001576
 5937 Fit       0.001556
 5938 Fit       0.003123
 5939 Fit       0.002568
 5940 Fit       0.000669
 5941 Fit      -0.003054
 5942 Fit       0.000916
 5943 Fit       0.004709
 5944 Fit       0.006990
 5945 Fit       0.007101
 5946 Fit       0.005632
 5947 Fit       0.003433
 5948 Fit       0.000912
 5949 Fit       0.012932
 5950 Fit       0.012139
 5951 Fit       0.009875
 5952 Fit       0.007206
 5953 Fit       0.004476
 5954 Fit       0.001618
 5955 Fit       0.017158
 5956 Fit       0.013647
 5957 Fit       0.010440
 5958 Fit       0.007551
 5959 Fit       0.004738
 5960 Fit       0.001714
 5961 Fit       0.016008
 5962 Fit       0.012434
 5963 Fit       0.009412
 5964 Fit       0.006511
 5965 Fit       0.003353
 5966 Fit       0.022481
 5967 Fit       0.017730
 5968 Fit      -0.002913
 5969 Fit       0.001519
 5970 Fit      -0.001246
 5971 Fit      -0.003718
 5972 Fit      -0.005723
 5973 Fit       0.002385
 5974 Fit      -0.000179
 5975 Fit      -0.002558
 5976 Fit      -0.004602
 5977 Fit      -0.006235
 5978 Fit      -0.007040
 5979 Fit      -0.008439
 5980 Fit      -0.009754
 5981 Fit      -0.010984
 5982 Fit      -0.012049
 5983 Fit       0.006274
 5984 Fit       0.003861
 5985 Fit       0.001326
 5986 Fit      -0.001182
 5987 Fit      -0.003477
 5988 Fit      -0.005429
 5989 Fit      -0.006485
 5990 Fit      -0.007998
 5991 Fit      -0.009239
 5992 Fit      -0.010121
 5993 Fit       0.004446
 5994 Fit       0.002251
 5995 Fit      -0.000151
 5996 Fit      -0.002529
 5997 Fit      -0.004672
 5998 Fit      -0.005732
 5999 Fit      -0.007302
 6000 Fit      -0.008102
 6001 Fit       0.002852
 6002 Fit       0.001165
 6003 Fit      -0.001179
 6004 Fit      -0.003617
 6005 Fit      -0.004665
 6006 Fit      -0.005776
 6007 Fit      -0.000263
 6008 Fit      -0.002176
 6009 Fit      -0.003150
 6010 Fit      -0.003405
 6011 Fit      -0.004090
 6012 Fit      -0.002280
 6013 Fit      -0.001012
 6014 Fit      -0.000715
 6015 Fit      -0.001979
 6016 Fit      -0.004496
 6017 Fit      -0.001627
 6018 Fit      -0.000070
 6019 Fit       0.001645
 6020 Fit       0.002608
 6021 Fit       0.002309
 6022 Fit      -0.001661
 6023 Fit      -0.000865
 6024 Fit       0.000874
 6025 Fit       0.003399
 6026 Fit      -0.001203
 6027 Fit      -0.001055
 6028 Fit       0.000067
 6029 Fit       0.002542
 6030 Fit      -0.000691
 6031 Fit      -0.001481
 6032 Fit      -0.001540
 6033 Fit      -0.000284
 6034 Fit       0.000035
 6035 Fit      -0.001615
 6036 Fit      -0.002920
 6037 Fit      -0.003530
 6038 Fit       0.000109
 6039 Fit      -0.003585
 6040 Fit      -0.004200
 6041 Fit      -0.005656
 6042 Fit      -0.006100
 6043 Fit      -0.007555
 6044 Fit      -0.007293
 6045 Fit      -0.007612
 6046 Fit      -0.008587
 6047 Fit      -0.013355
 6048 Fit      -0.012322
 6049 Fit      -0.012006
 6050 Fit      -0.011217
 6051 Fit      -0.010178
 6052 Fit      -0.009206
 6053 Fit      -0.008584
 6054 Fit      -0.008497
 6055 Fit      -0.009041
 6056 Fit      -0.010217
 6057 Fit      -0.012840
 6058 Fit      -0.012134
 6059 Fit      -0.011244
 6060 Fit      -0.011085
 6061 Fit      -0.010475
 6062 Fit      -0.009732
 6063 Fit      -0.009209
 6064 Fit      -0.009135
 6065 Fit      -0.009518
 6066 Fit      -0.009994
 6067 Fit      -0.010102
 6068 Fit      -0.010117
 6069 Fit      -0.009649
 6070 Fit      -0.009226
 6071 Fit      -0.009025
 6072 Fit      -0.008446
 6073 Fit      -0.008920
 6074 Fit      -0.009043
 6075 Fit      -0.008405
 6076 Fit      -0.006845
 6077 Fit      -0.007784
 6078 Fit       0.015567
 6079 Fit       0.012644
 6080 Fit       0.009890
 6081 Fit       0.007021
 6082 Fit       0.003733
 6083 Fit       0.020174
 6084 Fit       0.016615
 6085 Fit       0.013701
 6086 Fit       0.011050
 6087 Fit       0.008351
 6088 Fit       0.005312
 6089 Fit       0.001584
 6090 Fit       0.024454
 6091 Fit       0.020198
 6092 Fit       0.016991
 6093 Fit       0.014341
 6094 Fit       0.011916
 6095 Fit       0.009463
 6096 Fit       0.006753
 6097 Fit       0.003516
 6098 Fit       0.022073
 6099 Fit       0.018739
 6100 Fit       0.016058
 6101 Fit       0.013697
 6102 Fit       0.011415
 6103 Fit       0.009009
 6104 Fit       0.006276
 6105 Fit       0.002952
 6106 Fit       0.019977
 6107 Fit       0.017354
 6108 Fit       0.015084
 6109 Fit       0.012961
 6110 Fit       0.010813
 6111 Fit       0.008484
 6112 Fit       0.005800
 6113 Fit       0.002533
 6114 Fit       0.019057
 6115 Fit       0.016725
 6116 Fit       0.014646
 6117 Fit       0.012655
 6118 Fit       0.010610
 6119 Fit       0.008383
 6120 Fit       0.005833
 6121 Fit       0.002780
 6122 Fit       0.017259
 6123 Fit       0.015132
 6124 Fit       0.013153
 6125 Fit       0.011167
 6126 Fit       0.009048
 6127 Fit       0.006675
 6128 Fit       0.003916
 6129 Fit       0.000605
 6130 Fit       0.016025
 6131 Fit       0.013941
 6132 Fit       0.011958
 6133 Fit       0.009921
 6134 Fit       0.007710
 6135 Fit       0.005221
 6136 Fit       0.002353
 6137 Fit      -0.000984
 6138 Fit       0.014539
 6139 Fit       0.012514
 6140 Fit       0.010534
 6141 Fit       0.008460
 6142 Fit       0.006197
 6143 Fit       0.003679
 6144 Fit       0.000885
 6145 Fit      -0.002121
 6146 Fit       0.014015
 6147 Fit       0.011868
 6148 Fit       0.009792
 6149 Fit       0.007628
 6150 Fit       0.005286
 6151 Fit       0.002742
 6152 Fit       0.000059
 6153 Fit       0.013150
 6154 Fit       0.010947
 6155 Fit       0.008805
 6156 Fit       0.006566
 6157 Fit       0.004167
 6158 Fit       0.001635
 6159 Fit       0.010286
 6160 Fit       0.008050
 6161 Fit       0.005681
 6162 Fit       0.003143
 6163 Fit       0.007602
 6164 Fit       0.005000
 6165 Fit      -0.003165
 6166 Fit      -0.004625
 6167 Fit      -0.001045
 6168 Fit      -0.003745
 6169 Fit      -0.006617
 6170 Fit      -0.000926
 6171 Fit      -0.004120
 6172 Fit      -0.007788
 6173 Fit      -0.012239
 6174 Fit       0.000364
 6175 Fit      -0.003059
 6176 Fit      -0.006953
 6177 Fit      -0.011869
 6178 Fit       0.001359
 6179 Fit      -0.001989
 6180 Fit      -0.005687
 6181 Fit      -0.010286
 6182 Fit      -0.016483
 6183 Fit       0.000922
 6184 Fit      -0.002184
 6185 Fit      -0.005706
 6186 Fit      -0.010131
 6187 Fit      -0.016109
 6188 Fit       0.001256
 6189 Fit      -0.001378
 6190 Fit      -0.004410
 6191 Fit      -0.008208
 6192 Fit      -0.013285
 6193 Fit      -0.001903
 6194 Fit      -0.004438
 6195 Fit      -0.007799
 6196 Fit      -0.012391
 6197 Fit      -0.018870
 6198 Fit      -0.003006
 6199 Fit      -0.004829
 6200 Fit      -0.007550
 6201 Fit      -0.011423
 6202 Fit      -0.016904
 6203 Fit      -0.004984
 6204 Fit      -0.006549
 6205 Fit      -0.009260
 6206 Fit      -0.013348
 6207 Fit      -0.019223
 6208 Fit      -0.008115
 6209 Fit      -0.010750
 6210 Fit      -0.014834
 6211 Fit      -0.020511
 6212 Fit      -0.009950
 6213 Fit      -0.012898
 6214 Fit      -0.017085
 6215 Fit      -0.012145
 6216 Fit      -0.015046
 6217 Fit      -0.001504
 6218 Fit       0.002130
 6219 Fit       0.002849
 6220 Fit       0.008246
 6221 Fit      -0.012171
 6222 Fit      -0.009813
 6223 Fit      -0.010655
 6224 Fit      -0.006753
 6225 Fit      -0.008063
 6226 Fit      -0.008734
 6227 Fit      -0.001931
 6228 Fit      -0.004712
 6229 Fit      -0.004818
 6230 Fit      -0.006108
 6231 Fit      -0.006204
 6232 Fit      -0.005022
 6233 Fit      -0.002446
 6234 Fit      -0.002801
 6235 Fit      -0.003518
 6236 Fit      -0.011793
 6237 Fit      -0.016026
 6238 Fit      -0.009963
 6239 Fit      -0.005541
 6240 Fit      -0.005159
 6241 Fit      -0.006075
 6242 Fit      -0.007408
 6243 Fit      -0.009646
 6244 Fit      -0.012915
 6245 Fit      -0.016820
 6246 Fit      -0.020481
 6247 Fit      -0.016256
 6248 Fit      -0.011570
 6249 Fit      -0.007213
 6250 Fit      -0.003553
 6251 Fit      -0.000552
 6252 Fit      -0.001432
 6253 Fit      -0.002838
 6254 Fit      -0.004092
 6255 Fit      -0.005521
 6256 Fit      -0.007463
 6257 Fit      -0.009983
 6258 Fit      -0.012691
 6259 Fit      -0.014804
 6260 Fit      -0.015491
 6261 Fit      -0.014347
 6262 Fit      -0.011675
 6263 Fit      -0.008259
 6264 Fit      -0.004854
 6265 Fit      -0.001862
 6266 Fit       0.000633
 6267 Fit       0.000534
 6268 Fit      -0.000995
 6269 Fit      -0.002460
 6270 Fit      -0.004008
 6271 Fit      -0.005843
 6272 Fit      -0.007877
 6273 Fit      -0.009556
 6274 Fit      -0.010113
 6275 Fit      -0.009128
 6276 Fit      -0.006884
 6277 Fit      -0.004112
 6278 Fit      -0.001452
 6279 Fit       0.000777
 6280 Fit       0.002455
 6281 Fit       0.003482
 6282 Fit       0.002033
 6283 Fit       0.000371
 6284 Fit      -0.001207
 6285 Fit      -0.002916
 6286 Fit      -0.004694
 6287 Fit      -0.006023
 6288 Fit      -0.006016
 6289 Fit      -0.004431
 6290 Fit      -0.002043
 6291 Fit       0.000188
 6292 Fit       0.001691
 6293 Fit       0.002185
 6294 Fit       0.001643
 6295 Fit      -0.000191
 6296 Fit      -0.001969
 6297 Fit      -0.003301
 6298 Fit      -0.002547
 6299 Fit      -0.000444
 6300 Fit       0.000616
 6301 Fit      -0.001153
 6302 Fit       0.024758
 6303 Fit       0.023996
 6304 Fit       0.021448
 6305 Fit       0.021351
 6306 Fit       0.021381
 6307 Fit       0.018153
 6308 Fit       0.018648
 6309 Fit       0.019025
 6310 Fit       0.019544
 6311 Fit       0.014034
 6312 Fit       0.015383
 6313 Fit       0.016258
 6314 Fit       0.016884
 6315 Fit       0.017450
 6316 Fit       0.018162
 6317 Fit       0.010924
 6318 Fit       0.012664
 6319 Fit       0.013889
 6320 Fit       0.014768
 6321 Fit       0.015441
 6322 Fit       0.016036
 6323 Fit       0.016698
 6324 Fit       0.008948
 6325 Fit       0.010771
 6326 Fit       0.012131
 6327 Fit       0.013139
 6328 Fit       0.013896
 6329 Fit       0.014495
 6330 Fit       0.015026
 6331 Fit       0.015587
 6332 Fit       0.006626
 6333 Fit       0.008604
 6334 Fit       0.010172
 6335 Fit       0.011375
 6336 Fit       0.012276
 6337 Fit       0.012941
 6338 Fit       0.013426
 6339 Fit       0.013781
 6340 Fit       0.014017
 6341 Fit       0.006671
 6342 Fit       0.008324
 6343 Fit       0.009660
 6344 Fit       0.010692
 6345 Fit       0.011448
 6346 Fit       0.011960
 6347 Fit       0.012251
 6348 Fit       0.012312
 6349 Fit       0.012071
 6350 Fit       0.011350
 6351 Fit       0.005400
 6352 Fit       0.007048
 6353 Fit       0.008436
 6354 Fit       0.009520
 6355 Fit       0.010294
 6356 Fit       0.010764
 6357 Fit       0.010928
 6358 Fit       0.010747
 6359 Fit       0.010125
 6360 Fit       0.008918
 6361 Fit       0.005926
 6362 Fit       0.007295
 6363 Fit       0.008397
 6364 Fit       0.009170
 6365 Fit       0.009586
 6366 Fit       0.009617
 6367 Fit       0.009218
 6368 Fit       0.008330
 6369 Fit       0.006955
 6370 Fit       0.005832
 6371 Fit       0.007025
 6372 Fit       0.007917
 6373 Fit       0.008393
 6374 Fit       0.008389
 6375 Fit       0.007877
 6376 Fit       0.006903
 6377 Fit       0.006433
 6378 Fit       0.007180
 6379 Fit       0.007302
 6380 Fit       0.006769
 6381 Fit       0.005945
 6382 Fit       0.006345
 6383 Fit       0.000431
 6384 Fit       0.002954
 6385 Fit      -0.005775
 6386 Fit      -0.002509
 6387 Fit       0.000154
 6388 Fit       0.002571
 6389 Fit      -0.001075
 6390 Fit       0.001352
 6391 Fit       0.003568
 6392 Fit       0.000319
 6393 Fit       0.002411
 6394 Fit       0.004333
 6395 Fit       0.003908
 6396 Fit       0.001529
 6397 Fit       0.000810
 6398 Fit      -0.000721
 6399 Fit      -0.001720
 6400 Fit       0.001918
 6401 Fit       0.003728
 6402 Fit       0.005309
 6403 Fit       0.006085
 6404 Fit       0.004564
 6405 Fit       0.002684
 6406 Fit       0.001792
 6407 Fit       0.000579
 6408 Fit       0.003736
 6409 Fit       0.004919
 6410 Fit       0.005546
 6411 Fit       0.005438
 6412 Fit       0.004600
 6413 Fit       0.003259
 6414 Fit       0.002347
 6415 Fit       0.004169
 6416 Fit       0.004256
 6417 Fit       0.003508
 6418 Fit       0.018034
 6419 Fit       0.014192
 6420 Fit       0.013362
 6421 Fit       0.009859
 6422 Fit       0.008262
 6423 Fit       0.008707
 6424 Fit       0.006522
 6425 Fit       0.018203
 6426 Fit       0.019235
 6427 Fit       0.013679
 6428 Fit       0.014449
 6429 Fit       0.015655
 6430 Fit       0.017217
 6431 Fit       0.019007
 6432 Fit       0.020878
 6433 Fit       0.022686
 6434 Fit       0.024319
 6435 Fit       0.009723
 6436 Fit       0.010217
 6437 Fit       0.011139
 6438 Fit       0.012489
 6439 Fit       0.014210
 6440 Fit       0.016206
 6441 Fit       0.018368
 6442 Fit       0.006363
 6443 Fit       0.006645
 6444 Fit       0.007286
 6445 Fit       0.008343
 6446 Fit       0.009823
 6447 Fit       0.011687
 6448 Fit       0.013876
 6449 Fit       0.003651
 6450 Fit       0.004245
 6451 Fit       0.005207
 6452 Fit       0.006597
 6453 Fit       0.008424
 6454 Fit       0.010670
 6455 Fit       0.001189
 6456 Fit       0.002096
 6457 Fit       0.003309
 6458 Fit       0.004941
 6459 Fit       0.007041
 6460 Fit      -0.000996
 6461 Fit       0.000345
 6462 Fit       0.001869
 6463 Fit       0.003762
 6464 Fit       0.006127
 6465 Fit      -0.003799
 6466 Fit      -0.001755
 6467 Fit       0.000130
 6468 Fit       0.002219
 6469 Fit      -0.004017
 6470 Fit      -0.001534
 6471 Fit       0.024667
 6472 Fit       0.023142
 6473 Fit       0.022917
 6474 Fit       0.026100
 6475 Fit       0.024874
 6476 Fit       0.021297
 6477 Fit       0.020196
 6478 Fit       0.020725
 6479 Fit       0.027239
 6480 Fit       0.026377
 6481 Fit       0.025042
 6482 Fit       0.023214
 6483 Fit       0.019124
 6484 Fit       0.017416
 6485 Fit       0.016865
 6486 Fit       0.028019
 6487 Fit       0.027253
 6488 Fit       0.026369
 6489 Fit       0.025155
 6490 Fit       0.023467
 6491 Fit       0.021344
 6492 Fit       0.016582
 6493 Fit       0.014224
 6494 Fit       0.027801
 6495 Fit       0.027155
 6496 Fit       0.026439
 6497 Fit       0.025432
 6498 Fit       0.023952
 6499 Fit       0.021895
 6500 Fit       0.019327
 6501 Fit       0.013577
 6502 Fit       0.028036
 6503 Fit       0.027371
 6504 Fit       0.026940
 6505 Fit       0.026476
 6506 Fit       0.025771
 6507 Fit       0.024629
 6508 Fit       0.022866
 6509 Fit       0.020347
 6510 Fit       0.017122
 6511 Fit       0.026898
 6512 Fit       0.026561
 6513 Fit       0.026414
 6514 Fit       0.026246
 6515 Fit       0.025888
 6516 Fit       0.025169
 6517 Fit       0.023893
 6518 Fit       0.021819
 6519 Fit       0.025536
 6520 Fit       0.025377
 6521 Fit       0.025498
 6522 Fit       0.025686
 6523 Fit       0.025781
 6524 Fit       0.025639
 6525 Fit       0.025087
 6526 Fit       0.023875
 6527 Fit       0.023410
 6528 Fit       0.023521
 6529 Fit       0.023946
 6530 Fit       0.024495
 6531 Fit       0.025032
 6532 Fit       0.025445
 6533 Fit       0.025617
 6534 Fit       0.025391
 6535 Fit       0.024473
 6536 Fit       0.020756
 6537 Fit       0.021475
 6538 Fit       0.022394
 6539 Fit       0.023383
 6540 Fit       0.024346
 6541 Fit       0.025205
 6542 Fit       0.025886
 6543 Fit       0.026281
 6544 Fit       0.021527
 6545 Fit       0.023079
 6546 Fit       0.024585
 -----------------------------------------------------------------
 Leave Link  602 at Wed Nov 29 18:21:00 2017, MaxMem=  2147483648 cpu:         1.3

 Test job not archived.
 1\1\GINC-CSS-013\FOpt\RHF\6-31G(d)\C9H10F1N1O1\SONGLIN3\29-Nov-2017\0\
 \#HF/6-31G* SCF=tight Test Pop=MK iop(6/33=2) iop(6/42=6) opt\\remark 
 line goes here\\0,1\H,18.6822411887,-12.6730418669,20.3323387289\C,18.
 0731707655,-12.0557557158,20.9770048606\H,18.6123793704,-11.1510834733
 ,21.2329042786\H,17.8761640975,-12.6084060208,21.8905578774\C,16.75792
 16582,-11.7745469,20.2823109374\O,16.2800443635,-12.5456061354,19.4944
 390515\H,10.9077145571,-11.4616629662,23.6186354068\C,11.6932029143,-1
 1.2373272542,22.9217819872\F,11.4957344739,-8.9689571205,23.4294248026
 \H,12.0302675685,-13.2522346196,22.309906459\C,12.0924369563,-9.935376
 2043,22.7350489347\C,12.3294080042,-12.2271598306,22.1851549023\C,13.0
 945100524,-9.5894648869,21.8504785617\C,13.3358949515,-11.9091341239,2
 1.2917448994\H,13.360080079,-8.5533377259,21.7428523442\H,13.820413718
 1,-12.6815072066,20.7230891868\C,13.7275352038,-10.5830910274,21.11957
 38351\H,14.6903336578,-10.7338077799,19.2088363218\H,14.8404333439,-9.
 164748335,19.9626536579\C,14.8415880862,-10.2315900069,20.1518173521\N
 ,16.1605754334,-10.6072491994,20.6250190362\H,16.5479495556,-10.081911
 6004,21.375426578\\Version=ES64L-G09RevD.01\State=1-A\HF=-575.4062653\
 RMSD=7.482e-09\RMSF=2.316e-06\Dipole=0.678334,0.4810271,0.6617999\Quad
 rupole=4.7809372,-0.0496438,-4.7312935,6.3289779,3.8325035,-6.4763119\
 PG=C01 [X(C9H10F1N1O1)]\\@


 WHEN YOU REACH FOR THE STARS, YOU MAY NOT QUITE GET ONE,
 BUT YOU WON'T COME UP WITH A HANDFUL OF MUD, EITHER.

                                         -- LEO BURNETT (AD AGENCY HEAD)
 Job cpu time:       0 days  0 hours  9 minutes 44.6 seconds.
 File lengths (MBytes):  RWF=    134 Int=      0 D2E=      0 Chk=      5 Scr=      2
 Normal termination of Gaussian 09 at Wed Nov 29 18:21:00 2017.
