 Entering Gaussian System, Link 0=g09
 Initial command:
 /opt/software/Gaussian/g09/l1.exe "/mnt/ls15/scratch/users/songlin3/Gau-14655.inp" -scrdir="/mnt/ls15/scratch/users/songlin3/"
 Entering Link 1 = /opt/software/Gaussian/g09/l1.exe PID=     14656.
  
 Copyright (c) 1988,1990,1992,1993,1995,1998,2003,2009,2013,
            Gaussian, Inc.  All Rights Reserved.
  
 This is part of the Gaussian(R) 09 program.  It is based on
 the Gaussian(R) 03 system (copyright 2003, Gaussian, Inc.),
 the Gaussian(R) 98 system (copyright 1998, Gaussian, Inc.),
 the Gaussian(R) 94 system (copyright 1995, Gaussian, Inc.),
 the Gaussian 92(TM) system (copyright 1992, Gaussian, Inc.),
 the Gaussian 90(TM) system (copyright 1990, Gaussian, Inc.),
 the Gaussian 88(TM) system (copyright 1988, Gaussian, Inc.),
 the Gaussian 86(TM) system (copyright 1986, Carnegie Mellon
 University), and the Gaussian 82(TM) system (copyright 1983,
 Carnegie Mellon University). Gaussian is a federally registered
 trademark of Gaussian, Inc.
  
 This software contains proprietary and confidential information,
 including trade secrets, belonging to Gaussian, Inc.
  
 This software is provided under written license and may be
 used, copied, transmitted, or stored only in accord with that
 written license.
  
 The following legend is applicable only to US Government
 contracts under FAR:
  
                    RESTRICTED RIGHTS LEGEND
  
 Use, reproduction and disclosure by the US Government is
 subject to restrictions as set forth in subparagraphs (a)
 and (c) of the Commercial Computer Software - Restricted
 Rights clause in FAR 52.227-19.
  
 Gaussian, Inc.
 340 Quinnipiac St., Bldg. 40, Wallingford CT 06492
  
  
 ---------------------------------------------------------------
 Warning -- This program may not be used in any manner that
 competes with the business of Gaussian, Inc. or will provide
 assistance to any competitor of Gaussian, Inc.  The licensee
 of this program is prohibited from giving any competitor of
 Gaussian, Inc. access to this program.  By using this program,
 the user acknowledges that Gaussian, Inc. is engaged in the
 business of creating and licensing software in the field of
 computational chemistry and represents and warrants to the
 licensee that it is not a competitor of Gaussian, Inc. and that
 it will not use this program in any manner prohibited above.
 ---------------------------------------------------------------
  

 Cite this work as:
 Gaussian 09, Revision D.01,
 M. J. Frisch, G. W. Trucks, H. B. Schlegel, G. E. Scuseria, 
 M. A. Robb, J. R. Cheeseman, G. Scalmani, V. Barone, B. Mennucci, 
 G. A. Petersson, H. Nakatsuji, M. Caricato, X. Li, H. P. Hratchian, 
 A. F. Izmaylov, J. Bloino, G. Zheng, J. L. Sonnenberg, M. Hada, 
 M. Ehara, K. Toyota, R. Fukuda, J. Hasegawa, M. Ishida, T. Nakajima, 
 Y. Honda, O. Kitao, H. Nakai, T. Vreven, J. A. Montgomery, Jr., 
 J. E. Peralta, F. Ogliaro, M. Bearpark, J. J. Heyd, E. Brothers, 
 K. N. Kudin, V. N. Staroverov, T. Keith, R. Kobayashi, J. Normand, 
 K. Raghavachari, A. Rendell, J. C. Burant, S. S. Iyengar, J. Tomasi, 
 M. Cossi, N. Rega, J. M. Millam, M. Klene, J. E. Knox, J. B. Cross, 
 V. Bakken, C. Adamo, J. Jaramillo, R. Gomperts, R. E. Stratmann, 
 O. Yazyev, A. J. Austin, R. Cammi, C. Pomelli, J. W. Ochterski, 
 R. L. Martin, K. Morokuma, V. G. Zakrzewski, G. A. Voth, 
 P. Salvador, J. J. Dannenberg, S. Dapprich, A. D. Daniels, 
 O. Farkas, J. B. Foresman, J. V. Ortiz, J. Cioslowski, 
 and D. J. Fox, Gaussian, Inc., Wallingford CT, 2013.
 
 ******************************************
 Gaussian 09:  ES64L-G09RevD.01 24-Apr-2013
                29-Nov-2017 
 ******************************************
 %RWF=myrwf
 %NoSave
 %chk=esp.chk
 %NprocShared=4
 Will use up to    4 processors via shared memory.
 %Mem=16GB
 ----------------------------------------------------------------------
 #HF/CEP-31G SCF=tight Test Pop=MK iop(6/33=2) iop(6/42=6) opt #Pop=Rea
 dRadii iop(6/50=1)
 ----------------------------------------------------------------------
 1/18=20,19=15,38=1/1,3;
 2/9=110,12=2,17=6,18=5,40=1/2;
 3/5=9,6=1,11=9,16=1,25=1,30=1,71=1/1,2,3;
 4//1;
 5/5=2,32=2,38=5/2;
 6/7=2,8=2,9=2,10=2,15=8,20=101,28=1,33=2,42=6,50=1/1,2;
 7//1,2,3,16;
 1/18=20,19=15/3(2);
 2/9=110/2;
 99//99;
 2/9=110/2;
 3/5=9,6=1,11=9,16=1,25=1,30=1,71=1/1,2,3;
 4/5=5,16=3,69=1/1;
 5/5=2,32=2,38=5/2;
 7//1,2,3,16;
 1/18=20,19=15/3(-5);
 2/9=110/2;
 6/7=2,8=2,9=2,10=2,15=8,19=2,20=101,28=1,33=2,42=6,50=1/1,2;
 99/9=1/99;
 ---------------------
 remark line goes here
 ---------------------
 Symbolic Z-matrix:
 Charge =  0 Multiplicity = 1
 H                     6.22891  -1.24855  -0.89021 
 C                     5.22064  -1.1111   -1.27298 
 H                     4.81349  -2.07587  -1.56599 
 H                     5.28202  -0.46646  -2.14619 
 C                     4.38132  -0.41744  -0.20656 
 O                     4.70066   0.69987   0.24483 
 H                    -1.74973   2.34745  -0.82841 
 H                     0.50663   3.36373  -0.63863 
 C                    -0.9368    1.78029  -0.41309 
 C                     0.3487    2.3525   -0.3034 
 I                    -3.06823  -0.42634  -0.1133 
 C                    -1.13182   0.46112   0.03381 
 C                     1.41795   1.61983   0.24121 
 H                     2.39554   2.06025   0.32032 
 C                    -0.07004  -0.28549   0.58239 
 C                     1.21435   0.29188   0.68344 
 H                    -0.2372   -1.29054   0.92771 
 H                     2.97874   0.10879   1.90728 
 C                     2.37418  -0.51722   1.26416 
 H                     1.9919   -1.34335   1.85606 
 N                     3.26753  -1.0797    0.23439 
 H                     3.01671  -1.94669  -0.1902 
 

 GradGradGradGradGradGradGradGradGradGradGradGradGradGradGradGradGradGrad
 Berny optimization.
 Initialization pass.
                           ----------------------------
                           !    Initial Parameters    !
                           ! (Angstroms and Degrees)  !
 --------------------------                            --------------------------
 ! Name  Definition              Value          Derivative Info.                !
 --------------------------------------------------------------------------------
 ! R1    R(1,2)                  1.0872         estimate D2E/DX2                !
 ! R2    R(2,3)                  1.0874         estimate D2E/DX2                !
 ! R3    R(2,4)                  1.0871         estimate D2E/DX2                !
 ! R4    R(2,5)                  1.5241         estimate D2E/DX2                !
 ! R5    R(5,6)                  1.2466         estimate D2E/DX2                !
 ! R6    R(5,21)                 1.3688         estimate D2E/DX2                !
 ! R7    R(7,9)                  1.0747         estimate D2E/DX2                !
 ! R8    R(8,10)                 1.077          estimate D2E/DX2                !
 ! R9    R(9,10)                 1.4114         estimate D2E/DX2                !
 ! R10   R(9,12)                 1.4064         estimate D2E/DX2                !
 ! R11   R(10,13)                1.4059         estimate D2E/DX2                !
 ! R12   R(11,12)                2.1352         estimate D2E/DX2                !
 ! R13   R(12,15)                1.4092         estimate D2E/DX2                !
 ! R14   R(13,14)                1.0751         estimate D2E/DX2                !
 ! R15   R(13,16)                1.4144         estimate D2E/DX2                !
 ! R16   R(15,16)                1.4118         estimate D2E/DX2                !
 ! R17   R(15,17)                1.0758         estimate D2E/DX2                !
 ! R18   R(16,19)                1.5288         estimate D2E/DX2                !
 ! R19   R(18,19)                1.0821         estimate D2E/DX2                !
 ! R20   R(19,20)                1.0858         estimate D2E/DX2                !
 ! R21   R(19,21)                1.4747         estimate D2E/DX2                !
 ! R22   R(21,22)                0.9974         estimate D2E/DX2                !
 ! A1    A(1,2,3)              109.2652         estimate D2E/DX2                !
 ! A2    A(1,2,4)              107.7821         estimate D2E/DX2                !
 ! A3    A(1,2,5)              108.7788         estimate D2E/DX2                !
 ! A4    A(3,2,4)              109.3179         estimate D2E/DX2                !
 ! A5    A(3,2,5)              112.7158         estimate D2E/DX2                !
 ! A6    A(4,2,5)              108.8591         estimate D2E/DX2                !
 ! A7    A(2,5,6)              121.3457         estimate D2E/DX2                !
 ! A8    A(2,5,21)             116.9565         estimate D2E/DX2                !
 ! A9    A(6,5,21)             121.6973         estimate D2E/DX2                !
 ! A10   A(7,9,10)             120.3336         estimate D2E/DX2                !
 ! A11   A(7,9,12)             120.8574         estimate D2E/DX2                !
 ! A12   A(10,9,12)            118.8087         estimate D2E/DX2                !
 ! A13   A(8,10,9)             119.3436         estimate D2E/DX2                !
 ! A14   A(8,10,13)            119.8911         estimate D2E/DX2                !
 ! A15   A(9,10,13)            120.7649         estimate D2E/DX2                !
 ! A16   A(9,12,11)            119.5859         estimate D2E/DX2                !
 ! A17   A(9,12,15)            121.0767         estimate D2E/DX2                !
 ! A18   A(11,12,15)           119.3371         estimate D2E/DX2                !
 ! A19   A(10,13,14)           120.4341         estimate D2E/DX2                !
 ! A20   A(10,13,16)           120.0608         estimate D2E/DX2                !
 ! A21   A(14,13,16)           119.5043         estimate D2E/DX2                !
 ! A22   A(12,15,16)           119.7791         estimate D2E/DX2                !
 ! A23   A(12,15,17)           120.1901         estimate D2E/DX2                !
 ! A24   A(16,15,17)           120.0302         estimate D2E/DX2                !
 ! A25   A(13,16,15)           119.508          estimate D2E/DX2                !
 ! A26   A(13,16,19)           120.4295         estimate D2E/DX2                !
 ! A27   A(15,16,19)           120.0624         estimate D2E/DX2                !
 ! A28   A(16,19,18)           110.0868         estimate D2E/DX2                !
 ! A29   A(16,19,20)           110.0382         estimate D2E/DX2                !
 ! A30   A(16,19,21)           113.3402         estimate D2E/DX2                !
 ! A31   A(18,19,20)           108.2325         estimate D2E/DX2                !
 ! A32   A(18,19,21)           107.29           estimate D2E/DX2                !
 ! A33   A(20,19,21)           107.6815         estimate D2E/DX2                !
 ! A34   A(5,21,19)            122.2304         estimate D2E/DX2                !
 ! A35   A(5,21,22)            119.2122         estimate D2E/DX2                !
 ! A36   A(19,21,22)           118.4535         estimate D2E/DX2                !
 ! D1    D(1,2,5,6)             58.7731         estimate D2E/DX2                !
 ! D2    D(1,2,5,21)          -120.9582         estimate D2E/DX2                !
 ! D3    D(3,2,5,6)           -179.8854         estimate D2E/DX2                !
 ! D4    D(3,2,5,21)             0.3832         estimate D2E/DX2                !
 ! D5    D(4,2,5,6)            -58.4211         estimate D2E/DX2                !
 ! D6    D(4,2,5,21)           121.8475         estimate D2E/DX2                !
 ! D7    D(2,5,21,19)          179.9038         estimate D2E/DX2                !
 ! D8    D(2,5,21,22)           -3.8606         estimate D2E/DX2                !
 ! D9    D(6,5,21,19)            0.1735         estimate D2E/DX2                !
 ! D10   D(6,5,21,22)          176.4091         estimate D2E/DX2                !
 ! D11   D(7,9,10,8)             0.0938         estimate D2E/DX2                !
 ! D12   D(7,9,10,13)          179.8571         estimate D2E/DX2                !
 ! D13   D(12,9,10,8)         -179.7094         estimate D2E/DX2                !
 ! D14   D(12,9,10,13)           0.0539         estimate D2E/DX2                !
 ! D15   D(7,9,12,11)           -0.0416         estimate D2E/DX2                !
 ! D16   D(7,9,12,15)         -179.8298         estimate D2E/DX2                !
 ! D17   D(10,9,12,11)         179.7605         estimate D2E/DX2                !
 ! D18   D(10,9,12,15)          -0.0277         estimate D2E/DX2                !
 ! D19   D(8,10,13,14)          -0.3693         estimate D2E/DX2                !
 ! D20   D(8,10,13,16)         179.9558         estimate D2E/DX2                !
 ! D21   D(9,10,13,14)         179.8686         estimate D2E/DX2                !
 ! D22   D(9,10,13,16)           0.1937         estimate D2E/DX2                !
 ! D23   D(9,12,15,16)          -0.2459         estimate D2E/DX2                !
 ! D24   D(9,12,15,17)         179.4662         estimate D2E/DX2                !
 ! D25   D(11,12,15,16)        179.9653         estimate D2E/DX2                !
 ! D26   D(11,12,15,17)         -0.3226         estimate D2E/DX2                !
 ! D27   D(10,13,16,15)         -0.4654         estimate D2E/DX2                !
 ! D28   D(10,13,16,19)        179.391          estimate D2E/DX2                !
 ! D29   D(14,13,16,15)        179.8567         estimate D2E/DX2                !
 ! D30   D(14,13,16,19)         -0.2869         estimate D2E/DX2                !
 ! D31   D(12,15,16,13)          0.4899         estimate D2E/DX2                !
 ! D32   D(12,15,16,19)       -179.367          estimate D2E/DX2                !
 ! D33   D(17,15,16,13)       -179.2226         estimate D2E/DX2                !
 ! D34   D(17,15,16,19)          0.9205         estimate D2E/DX2                !
 ! D35   D(13,16,19,18)         40.9427         estimate D2E/DX2                !
 ! D36   D(13,16,19,20)        160.1505         estimate D2E/DX2                !
 ! D37   D(13,16,19,21)        -79.2198         estimate D2E/DX2                !
 ! D38   D(15,16,19,18)       -139.2017         estimate D2E/DX2                !
 ! D39   D(15,16,19,20)        -19.9939         estimate D2E/DX2                !
 ! D40   D(15,16,19,21)        100.6358         estimate D2E/DX2                !
 ! D41   D(16,19,21,5)          92.0362         estimate D2E/DX2                !
 ! D42   D(16,19,21,22)        -84.2267         estimate D2E/DX2                !
 ! D43   D(18,19,21,5)         -29.704          estimate D2E/DX2                !
 ! D44   D(18,19,21,22)        154.033          estimate D2E/DX2                !
 ! D45   D(20,19,21,5)        -146.0095         estimate D2E/DX2                !
 ! D46   D(20,19,21,22)         37.7276         estimate D2E/DX2                !
 --------------------------------------------------------------------------------
 Trust Radius=3.00D-01 FncErr=1.00D-07 GrdErr=1.00D-07
 Number of steps in this run=    114 maximum allowed number of steps=    132.
 GradGradGradGradGradGradGradGradGradGradGradGradGradGradGradGradGradGrad

                          Input orientation:                          
 ---------------------------------------------------------------------
 Center     Atomic      Atomic             Coordinates (Angstroms)
 Number     Number       Type             X           Y           Z
 ---------------------------------------------------------------------
      1          1           0        6.228909   -1.248547   -0.890207
      2          6           0        5.220639   -1.111095   -1.272976
      3          1           0        4.813490   -2.075875   -1.565994
      4          1           0        5.282022   -0.466457   -2.146190
      5          6           0        4.381322   -0.417437   -0.206562
      6          8           0        4.700662    0.699869    0.244834
      7          1           0       -1.749733    2.347445   -0.828413
      8          1           0        0.506632    3.363730   -0.638626
      9          6           0       -0.936797    1.780285   -0.413092
     10          6           0        0.348703    2.352498   -0.303399
     11         53           0       -3.068226   -0.426341   -0.113304
     12          6           0       -1.131819    0.461124    0.033814
     13          6           0        1.417945    1.619831    0.241212
     14          1           0        2.395543    2.060253    0.320324
     15          6           0       -0.070038   -0.285492    0.582394
     16          6           0        1.214351    0.291882    0.683436
     17          1           0       -0.237197   -1.290535    0.927708
     18          1           0        2.978741    0.108787    1.907281
     19          6           0        2.374182   -0.517221    1.264163
     20          1           0        1.991897   -1.343351    1.856062
     21          7           0        3.267531   -1.079701    0.234392
     22          1           0        3.016713   -1.946694   -0.190200
 ---------------------------------------------------------------------
                    Distance matrix (angstroms):
                    1          2          3          4          5
     1  H    0.000000
     2  C    1.087204   0.000000
     3  H    1.773294   1.087396   0.000000
     4  H    1.756631   1.087119   1.773803   0.000000
     5  C    2.138152   1.524091   2.187519   2.139117   0.000000
     6  O    2.724001   2.419445   3.316110   2.723103   1.246639
     7  H    8.751783   7.793922   7.948942   7.687663   6.754340
     8  H    7.353968   6.530568   6.999881   6.304556   5.431126
     9  C    7.794152   6.856639   7.018900   6.835582   5.758040
    10  C    6.920166   6.055767   6.413966   5.973276   4.893254
    11  I    9.365699   8.397560   8.182464   8.594235   7.450137
    12  C    7.612956   6.673327   6.659013   6.837410   5.587877
    13  C    5.714287   4.920488   5.334226   4.998337   3.623888
    14  H    5.206557   4.536212   5.149002   4.560671   3.218676
    15  C    6.540089   5.667035   5.627601   6.010197   4.522661
    16  C    5.476775   4.673996   4.860042   5.012765   3.365254
    17  H    6.716927   5.887545   5.687244   6.371007   4.835244
    18  H    4.497987   4.077776   4.494740   4.697514   2.590845
    19  C    4.476055   3.859026   4.048384   4.482033   2.490301
    20  H    5.050074   4.502177   4.495380   5.254701   3.289542
    21  N    3.172222   2.467342   2.573663   3.178272   1.368782
    22  H    3.360896   2.593823   2.266695   3.338955   2.049647
                    6          7          8          9         10
     6  O    0.000000
     7  H    6.743438   0.000000
     8  H    5.046439   2.481942   0.000000
     9  C    5.777639   1.074722   2.154449   0.000000
    10  C    4.687354   2.163122   1.076991   1.411372   0.000000
    11  I    7.858259   3.153362   5.236431   3.082541   4.408343
    12  C    5.841178   2.164130   3.400267   1.406394   2.425480
    13  C    3.409190   3.421652   2.155409   2.449218   1.405945
    14  H    2.677670   4.311077   2.487292   3.423561   2.159628
    15  C    4.883079   3.426968   3.891049   2.451469   2.814065
    16  C    3.537399   3.911115   3.418328   2.836398   2.443221
    17  H    5.367539   4.313540   4.966776   3.423028   3.889806
    18  H    2.465384   5.903734   4.815352   4.848657   4.103467
    19  C    2.816531   5.439840   4.708517   4.365123   3.846440
    20  H    3.756090   5.901540   5.530469   4.845968   4.585047
    21  N    2.284916   6.168292   5.303659   5.125927   4.537485
    22  H    3.166897   6.447166   5.890857   5.437858   5.061042
                   11         12         13         14         15
    11  I    0.000000
    12  C    2.135160   0.000000
    13  C    4.943504   2.808365   0.000000
    14  H    6.018634   3.883502   1.075141   0.000000
    15  C    3.081066   1.409168   2.441466   3.413252   0.000000
    16  C    4.414873   2.440321   1.414377   2.157360   1.411816
    17  H    3.137716   2.160487   3.417748   4.304418   1.075777
    18  H    6.398042   4.531084   2.737722   2.582009   3.347512
    19  C    5.614756   3.842260   2.554958   2.744934   2.548081
    20  H    5.506737   4.041574   3.423099   3.755788   2.644404
    21  N    6.378839   4.665689   3.272383   3.259917   3.448368
    22  H    6.272469   4.801884   3.932210   4.086822   3.589502
                   16         17         18         19         20
    16  C    0.000000
    17  H    2.161181   0.000000
    18  H    2.155085   3.641418   0.000000
    19  C    1.528757   2.744179   1.082118   0.000000
    20  H    2.157224   2.415262   1.756471   1.085807   0.000000
    21  N    2.509667   3.578862   2.072308   1.474749   2.080040
    22  H    3.003826   3.502598   2.936983   2.138086   2.366740
                   21         22
    21  N    0.000000
    22  H    0.997429   0.000000
 Stoichiometry    C9H10INO
 Framework group  C1[X(C9H10INO)]
 Deg. of freedom    60
 Full point group                 C1      NOp   1
 Largest Abelian subgroup         C1      NOp   1
 Largest concise Abelian subgroup C1      NOp   1
                         Standard orientation:                         
 ---------------------------------------------------------------------
 Center     Atomic      Atomic             Coordinates (Angstroms)
 Number     Number       Type             X           Y           Z
 ---------------------------------------------------------------------
      1          1           0        6.228909   -1.248547   -0.890207
      2          6           0        5.220639   -1.111095   -1.272976
      3          1           0        4.813490   -2.075875   -1.565994
      4          1           0        5.282022   -0.466457   -2.146190
      5          6           0        4.381322   -0.417437   -0.206562
      6          8           0        4.700662    0.699869    0.244834
      7          1           0       -1.749733    2.347445   -0.828413
      8          1           0        0.506632    3.363730   -0.638626
      9          6           0       -0.936797    1.780285   -0.413092
     10          6           0        0.348703    2.352498   -0.303399
     11         53           0       -3.068226   -0.426341   -0.113304
     12          6           0       -1.131819    0.461124    0.033814
     13          6           0        1.417945    1.619831    0.241212
     14          1           0        2.395543    2.060253    0.320324
     15          6           0       -0.070038   -0.285492    0.582394
     16          6           0        1.214351    0.291882    0.683436
     17          1           0       -0.237197   -1.290535    0.927708
     18          1           0        2.978741    0.108787    1.907281
     19          6           0        2.374182   -0.517221    1.264163
     20          1           0        1.991897   -1.343351    1.856062
     21          7           0        3.267531   -1.079701    0.234392
     22          1           0        3.016713   -1.946694   -0.190200
 ---------------------------------------------------------------------
 Rotational constants (GHZ):      1.6086917      0.1974823      0.1853050
 Standard basis: CEP-31G (6D, 10F)
 There are   116 symmetry adapted cartesian basis functions of A   symmetry.
 There are   116 symmetry adapted basis functions of A   symmetry.
   116 basis functions,   236 primitive gaussians,   116 cartesian basis functions
    32 alpha electrons       32 beta electrons
       nuclear repulsion energy       332.1737649472 Hartrees.
 NAtoms=   22 NActive=   22 NUniq=   22 SFac= 1.00D+00 NAtFMM=   60 NAOKFM=F Big=F
 Integral buffers will be    131072 words long.
 Raffenetti 1 integral format.
 Two-electron integral symmetry is turned on.
 One-electron integrals computed using PRISM.
   1 Symmetry operations used in ECPInt.
 ECPInt:  NShTT=     990 NPrTT=    4074 LenC2=     986 LenP2D=    3313.
 LDataN:  DoStor=T MaxTD1= 4 Len=   56
 NBasis=   116 RedAO= T EigKep=  2.61D-04  NBF=   116
 NBsUse=   116 1.00D-06 EigRej= -1.00D+00 NBFU=   116
 ExpMin= 7.80D-02 ExpMax= 1.92D+01 ExpMxC= 1.92D+01 IAcc=2 IRadAn=         4 AccDes= 0.00D+00
 Harris functional with IExCor=  205 and IRadAn=       4 diagonalized for initial guess.
 HarFok:  IExCor=  205 AccDes= 0.00D+00 IRadAn=         4 IDoV= 1 UseB2=F ITyADJ=14
 ICtDFT=  3500011 ScaDFX=  1.000000  1.000000  1.000000  1.000000
 Defaulting to unpruned grid for atomic number  53.
 Defaulting to unpruned grid for atomic number  53.
 Defaulting to unpruned grid for atomic number  53.
 Defaulting to unpruned grid for atomic number  53.
 FoFCou: FMM=F IPFlag=           0 FMFlag=      100000 FMFlg1=           0
         NFxFlg=           0 DoJE=T BraDBF=F KetDBF=T FulRan=T
         wScrn=  0.000000 ICntrl=     500 IOpCl=  0 I1Cent=   200000004 NGrid=           0
         NMat0=    1 NMatS0=      1 NMatT0=    0 NMatD0=    1 NMtDS0=    0 NMtDT0=    0
 Petite list used in FoFCou.
 Keep R1 ints in memory in canonical form, NReq=23950119.
 Requested convergence on RMS density matrix=1.00D-08 within 128 cycles.
 Requested convergence on MAX density matrix=1.00D-06.
 Requested convergence on             energy=1.00D-06.
 No special actions if energy rises.
 SCF Done:  E(RHF) =  -91.5986295989     A.U. after   16 cycles
            NFock= 16  Conv=0.31D-08     -V/T= 2.3926

 **********************************************************************

            Population analysis using the SCF density.

 **********************************************************************

 Orbital symmetries:
 BldTbl:  Degeneracy threshold= 1.00D-02
       Occupied  (A) (A) (A) (A) (A) (A) (A) (A) (A) (A) (A) (A)
                 (A) (A) (A) (A) (A) (A) (A) (A) (A) (A) (A) (A)
                 (A) (A) (A) (A) (A) (A) (A) (A)
       Virtual   (A) (A) (A) (A) (A) (A) (A) (A) (A) (A) (A) (A)
                 (A) (A) (A) (A) (A) (A) (A) (A) (A) (A) (A) (A)
                 (A) (A) (A) (A) (A) (A) (A) (A) (A) (A) (A) (A)
                 (A) (A) (A) (A) (A) (A) (A) (A) (A) (A) (A) (A)
                 (A) (A) (A) (A) (A) (A) (A) (A) (A) (A) (A) (A)
                 (A) (A) (A) (A) (A) (A) (A) (A) (A) (A) (A) (A)
                 (A) (A) (A) (A) (A) (A) (A) (A) (A) (A) (A) (A)
 The electronic state is 1-A.
 Alpha  occ. eigenvalues --   -1.40364  -1.25359  -1.17754  -1.07202  -1.04430
 Alpha  occ. eigenvalues --   -1.02458  -0.95076  -0.90481  -0.84225  -0.80915
 Alpha  occ. eigenvalues --   -0.79994  -0.70810  -0.70167  -0.65867  -0.65258
 Alpha  occ. eigenvalues --   -0.64310  -0.62112  -0.59702  -0.57649  -0.57114
 Alpha  occ. eigenvalues --   -0.56214  -0.54909  -0.52933  -0.51667  -0.49966
 Alpha  occ. eigenvalues --   -0.45348  -0.42670  -0.39934  -0.39383  -0.37291
 Alpha  occ. eigenvalues --   -0.34643  -0.32481
 Alpha virt. eigenvalues --    0.09072   0.10626   0.11098   0.17351   0.22343
 Alpha virt. eigenvalues --    0.25177   0.26388   0.26582   0.28481   0.28827
 Alpha virt. eigenvalues --    0.30013   0.30841   0.31005   0.32046   0.32426
 Alpha virt. eigenvalues --    0.32998   0.33416   0.35139   0.36355   0.36901
 Alpha virt. eigenvalues --    0.38832   0.39968   0.40991   0.41922   0.42982
 Alpha virt. eigenvalues --    0.43760   0.45135   0.45755   0.46837   0.47916
 Alpha virt. eigenvalues --    0.49381   0.50377   0.50920   0.53102   0.53456
 Alpha virt. eigenvalues --    0.53983   0.56263   0.58133   0.59480   0.60625
 Alpha virt. eigenvalues --    0.62834   0.65337   0.67845   0.70248   0.70955
 Alpha virt. eigenvalues --    0.72230   0.73852   0.76132   0.78457   0.80081
 Alpha virt. eigenvalues --    0.85634   0.86899   0.88460   0.89856   0.90793
 Alpha virt. eigenvalues --    0.92792   0.96722   0.98843   1.03300   1.06025
 Alpha virt. eigenvalues --    1.12675   1.17650   1.30792   1.38588   1.41500
 Alpha virt. eigenvalues --    1.44622   1.45639   1.47069   1.48951   1.53110
 Alpha virt. eigenvalues --    1.54782   1.62607   2.04562   2.34521   2.87059
 Alpha virt. eigenvalues --    3.01217   3.17080   3.69974   4.14393   4.60051
 Alpha virt. eigenvalues --    5.13783   5.40736   6.13293   8.15762
          Condensed to atoms (all electrons):
               1          2          3          4          5          6
     1  H    0.504553   0.374636  -0.016449  -0.010848  -0.002397   0.001163
     2  C    0.374636   3.161534   0.349665   0.372933   0.216175  -0.080745
     3  H   -0.016449   0.349665   0.581144  -0.016904  -0.014903   0.002950
     4  H   -0.010848   0.372933  -0.016904   0.506416  -0.000697   0.000940
     5  C   -0.002397   0.216175  -0.014903  -0.000697   3.009072   0.548196
     6  O    0.001163  -0.080745   0.002950   0.000940   0.548196   5.958654
     7  H    0.000000   0.000000   0.000000   0.000000   0.000000   0.000000
     8  H    0.000000   0.000000   0.000000   0.000000   0.000020   0.000002
     9  C    0.000000  -0.000007   0.000000   0.000000  -0.000143  -0.000021
    10  C    0.000000   0.000099  -0.000001  -0.000001  -0.000409  -0.000302
    11  I    0.000000   0.000000   0.000000   0.000000   0.000001   0.000000
    12  C    0.000000  -0.000006   0.000000   0.000000   0.000337  -0.000009
    13  C    0.000006  -0.000384   0.000005   0.000006  -0.000581  -0.008416
    14  H    0.000000   0.000064  -0.000001   0.000001   0.000792  -0.000320
    15  C    0.000001   0.000066  -0.000003  -0.000002   0.001600   0.000072
    16  C   -0.000036  -0.003177  -0.000093   0.000138  -0.009436  -0.001484
    17  H    0.000000   0.000003   0.000000   0.000000  -0.000009   0.000000
    18  H    0.000001   0.000899  -0.000024  -0.000005  -0.004980   0.000576
    19  C   -0.000049   0.006667   0.001770  -0.000194   0.011313   0.007334
    20  H    0.000003  -0.000093  -0.000010   0.000001   0.007622   0.000136
    21  N    0.000805  -0.122921   0.012922   0.000813   0.282051  -0.123789
    22  H    0.000098   0.001161  -0.000578   0.000106  -0.016960   0.002779
               7          8          9         10         11         12
     1  H    0.000000   0.000000   0.000000   0.000000   0.000000   0.000000
     2  C    0.000000   0.000000  -0.000007   0.000099   0.000000  -0.000006
     3  H    0.000000   0.000000   0.000000  -0.000001   0.000000   0.000000
     4  H    0.000000   0.000000   0.000000  -0.000001   0.000000   0.000000
     5  C    0.000000   0.000020  -0.000143  -0.000409   0.000001   0.000337
     6  O    0.000000   0.000002  -0.000021  -0.000302   0.000000  -0.000009
     7  H    0.456475  -0.001943   0.305519  -0.016560   0.002768  -0.025743
     8  H   -0.001943   0.463365  -0.031491   0.316499  -0.000165   0.006141
     9  C    0.305519  -0.031491   3.056497   0.538614  -0.082369   0.451946
    10  C   -0.016560   0.316499   0.538614   3.091144   0.002613  -0.012918
    11  I    0.002768  -0.000165  -0.082369   0.002613   6.764691   0.193179
    12  C   -0.025743   0.006141   0.451946  -0.012918   0.193179   3.850606
    13  C    0.005127  -0.016911  -0.036960   0.432662   0.002407  -0.038970
    14  H   -0.000045  -0.001248   0.004069  -0.038178   0.000011   0.000611
    15  C    0.004624   0.001006  -0.151369  -0.066391  -0.088741   0.227390
    16  C   -0.000214   0.004285  -0.004405   0.090664   0.005380   0.107949
    17  H   -0.000059  -0.000002   0.001171   0.001534   0.001426  -0.023561
    18  H    0.000000  -0.000001   0.000015   0.000870   0.000005  -0.000796
    19  C   -0.000034  -0.000250   0.003081   0.020941  -0.000650   0.023457
    20  H    0.000000   0.000001  -0.000027  -0.000337   0.000016   0.003052
    21  N    0.000000  -0.000001   0.000239   0.000752   0.000025  -0.000433
    22  H    0.000000   0.000000  -0.000003   0.000025   0.000000  -0.000170
              13         14         15         16         17         18
     1  H    0.000006   0.000000   0.000001  -0.000036   0.000000   0.000001
     2  C   -0.000384   0.000064   0.000066  -0.003177   0.000003   0.000899
     3  H    0.000005  -0.000001  -0.000003  -0.000093   0.000000  -0.000024
     4  H    0.000006   0.000001  -0.000002   0.000138   0.000000  -0.000005
     5  C   -0.000581   0.000792   0.001600  -0.009436  -0.000009  -0.004980
     6  O   -0.008416  -0.000320   0.000072  -0.001484   0.000000   0.000576
     7  H    0.005127  -0.000045   0.004624  -0.000214  -0.000059   0.000000
     8  H   -0.016911  -0.001248   0.001006   0.004285  -0.000002  -0.000001
     9  C   -0.036960   0.004069  -0.151369  -0.004405   0.001171   0.000015
    10  C    0.432662  -0.038178  -0.066391   0.090664   0.001534   0.000870
    11  I    0.002407   0.000011  -0.088741   0.005380   0.001426   0.000005
    12  C   -0.038970   0.000611   0.227390   0.107949  -0.023561  -0.000796
    13  C    2.984431   0.304883  -0.071887   0.473967   0.002488  -0.006373
    14  H    0.304883   0.419451   0.006620  -0.018295  -0.000059  -0.000008
    15  C   -0.071887   0.006620   3.381498   0.340531   0.294218   0.007134
    16  C    0.473967  -0.018295   0.340531   3.259329  -0.022287  -0.034624
    17  H    0.002488  -0.000059   0.294218  -0.022287   0.454796   0.000127
    18  H   -0.006373  -0.000008   0.007134  -0.034624   0.000127   0.494486
    19  C   -0.007470  -0.006706  -0.007107   0.044150  -0.002488   0.404311
    20  H    0.003290   0.000056   0.006665  -0.061489  -0.001100  -0.029337
    21  N    0.006022   0.000295  -0.002822  -0.050895   0.000057  -0.031524
    22  H   -0.000811  -0.000006   0.002053  -0.001042   0.000022   0.002654
              19         20         21         22
     1  H   -0.000049   0.000003   0.000805   0.000098
     2  C    0.006667  -0.000093  -0.122921   0.001161
     3  H    0.001770  -0.000010   0.012922  -0.000578
     4  H   -0.000194   0.000001   0.000813   0.000106
     5  C    0.011313   0.007622   0.282051  -0.016960
     6  O    0.007334   0.000136  -0.123789   0.002779
     7  H   -0.000034   0.000000   0.000000   0.000000
     8  H   -0.000250   0.000001  -0.000001   0.000000
     9  C    0.003081  -0.000027   0.000239  -0.000003
    10  C    0.020941  -0.000337   0.000752   0.000025
    11  I   -0.000650   0.000016   0.000025   0.000000
    12  C    0.023457   0.003052  -0.000433  -0.000170
    13  C   -0.007470   0.003290   0.006022  -0.000811
    14  H   -0.006706   0.000056   0.000295  -0.000006
    15  C   -0.007107   0.006665  -0.002822   0.002053
    16  C    0.044150  -0.061489  -0.050895  -0.001042
    17  H   -0.002488  -0.001100   0.000057   0.000022
    18  H    0.404311  -0.029337  -0.031524   0.002654
    19  C    3.296453   0.395684   0.093639  -0.007660
    20  H    0.395684   0.547860  -0.040516  -0.006137
    21  N    0.093639  -0.040516   5.071291   0.293610
    22  H   -0.007660  -0.006137   0.293610   0.365254
 Mulliken charges:
               1
     1  H    0.148514
     2  C   -0.276569
     3  H    0.100510
     4  H    0.147298
     5  C   -0.026663
     6  O   -0.307715
     7  H    0.270084
     8  H    0.260692
     9  C   -0.054356
    10  C   -0.361316
    11  I    0.199402
    12  C   -0.762065
    13  C   -0.026531
    14  H    0.328016
    15  C    0.114845
    16  C   -0.118918
    17  H    0.293722
    18  H    0.196594
    19  C   -0.276191
    20  H    0.174661
    21  N   -0.389618
    22  H    0.365606
 Sum of Mulliken charges =   0.00000
 Mulliken charges with hydrogens summed into heavy atoms:
               1
     2  C    0.119753
     5  C   -0.026663
     6  O   -0.307715
     9  C    0.215729
    10  C   -0.100624
    11  I    0.199402
    12  C   -0.762065
    13  C    0.301485
    15  C    0.408566
    16  C   -0.118918
    19  C    0.095063
    21  N   -0.024012
 DipInt: DoE/N= T F RetVal/Mat= T F Init=T NMatP=  1 IDeriv=0 Min/MaxMlt=  0  4
 Entering OneElI...
 OneElI was handed  2147446910 working-precision words.
 Multipole integrals L=0 to 4 MinM= 0 MaxM= 0.
 Requested accuracy = 0.1000D-12
 ShPair: Thresh= 1.00D-13 NBox=     0 BxSize= 0.00D+00 RnKept= 1.77D+01
         NSMCal=                  990 NSMKep=                 962
 PrsmSu:  NPrtUS=   1 ThrOK=F IAlg=1 NPAlg=1 LenDen=           0.
 Prism:   IPart=     0 DynPar=F LinDyn=F Incr=           9.
 PRISM was handed  2147371722 working-precision words and   962 shell-pairs
 IPart=  0 NShTot=         962 NBatch=          28 AvBLen=        34.4
 PrSmSu:  NxtVal=             10.
 Electronic moments (au):
        -64.00000000       -187.96399754        -23.90853518         -6.18944901
      -2230.10511140       -408.61630748       -190.29668762        146.76092869
         43.62842985          4.39475101     -14757.11797728       -835.01852854
        -14.42374406       -916.07890150       1526.25684464       1237.82828390
       -828.63433916        103.08994122        165.94847508       -385.89404666
    -162929.91226259      -7179.97031788      -1834.08479907      13354.68189411
      14048.31984022       1250.13105508        425.10480923        851.03159456
        -87.21288395      -9791.07063610      -8466.13196196      -1051.09662282
      -3781.39126408        609.19657649       1297.00674395
 Electronic spatial extent (au):  <R**2>=           2829.0181
 DipInt: DoE/N= F T RetVal/Mat= T F Init=T NMatP=  1 IDeriv=0 Min/MaxMlt=  0  4
 Nuclear    moments (au):
         64.00000000        188.15062935         22.71938217          5.73635123
       2157.68977406        349.96334546        126.09259372       -159.21800367
        -48.11788194         -6.18829785      14408.08483380        794.50657972
          3.79732922        830.12498175      -1654.20276760      -1302.62024721
        755.73819782       -124.78952933       -181.82577775        392.93152477
     150059.15139573       5397.88480679        976.97418426     -14040.92611346
     -14520.99104732      -1075.66411937       -470.69877315       -797.68329969
         88.53033440       7422.46914486       6335.09713528        571.37047504
       3810.97773014       -604.06888296      -1232.73000929
 Total      moments (au):
          0.00000000          0.18663182         -1.18915301         -0.45309778
        -72.41533734        -58.65296202        -64.20409390        -12.45707497
         -4.48945208         -1.79354685       -349.03314347        -40.51194883
        -10.62641484        -85.95391974       -127.94592297        -64.79196331
        -72.89614134        -21.69958811        -15.87730266          7.03747811
     -12870.76086685      -1782.08551109       -857.11061481       -686.24421935
       -472.67120710        174.46693571        -45.59396392         53.34829487
          1.31745045      -2368.60149124      -2131.03482668       -479.72614778
         29.58646606          5.12769353         64.27673466
 Traceless Quadrup. (au):
         -7.32453959          6.43783573          0.88670385        -12.45707497
         -4.48945208         -1.79354685
 Charge=              0.0000 electrons
 Dipole moment (field-independent basis, Debye):
    X=              0.4744    Y=             -3.0225    Z=             -1.1517  Tot=              3.2691
 Quadrupole moment (field-independent basis, Debye-Ang):
   XX=            -97.4011   YY=            -78.8902   ZZ=            -86.3567
   XY=            -16.7552   XZ=             -6.0385   YZ=             -2.4124
 Traceless Quadrupole moment (field-independent basis, Debye-Ang):
   XX=             -9.8518   YY=              8.6591   ZZ=              1.1926
   XY=            -16.7552   XZ=             -6.0385   YZ=             -2.4124
 Octapole moment (field-independent basis, Debye-Ang**2):
  XXX=           -248.4283  YYY=            -28.8348  ZZZ=             -7.5635  XYY=            -61.1787
  XXY=            -91.0670  XXZ=            -46.1164  XZZ=            -51.8847  YZZ=            -15.4449
  YYZ=            -11.3009  XYZ=              5.0090
 Hexadecapole moment (field-independent basis, Debye-Ang**3):
 XXXX=          -4847.7454 YYYY=           -671.2188 ZZZZ=           -322.8289 XXXY=           -258.4725
 XXXZ=           -178.0306 YYYX=             65.7126 YYYZ=            -17.1729 ZZZX=             20.0935
 ZZZY=              0.4962 XXYY=           -892.1288 XXZZ=           -802.6498 YYZZ=           -180.6879
 XXYZ=             11.1437 YYXZ=              1.9313 ZZXY=             24.2097
 N-N= 3.321737649472D+02 E-N=-8.685448975769D+02  KE= 6.577389552919D+01
 Entering OneElI...
 OneElI was handed  2147453030 working-precision words.
 Calculate electrostatic properties
    NBasis =   116  MinDer = 0  MaxDer = 0
    NGrid  =    22  NMatD  =   1
 Requested accuracy = 0.1000D-12
 ShPair: Thresh= 1.00D-13 NBox=     0 BxSize= 0.00D+00 RnKept= 1.77D+01
         NSMCal=                  990 NSMKep=                 932
 PrsmSu:  NPrtUS=   4 ThrOK=T IAlg=1 NPAlg=1 LenDen=           0.
 Prism:   IPart=     0 DynPar=F LinDyn=F Incr=          51.
 PRISM was handed   536823983 working-precision words and   932 shell-pairs
 PRISM was handed   536823983 working-precision words and   932 shell-pairs
 PRISM was handed   536823983 working-precision words and   932 shell-pairs
 PRISM was handed   536823983 working-precision words and   932 shell-pairs
 IPart=  2 NShTot=        5016 NBatch=         228 AvBLen=        22.0
 IPart=  1 NShTot=        5214 NBatch=         237 AvBLen=        22.0
 IPart=  3 NShTot=        4928 NBatch=         224 AvBLen=        22.0
 IPart=  0 NShTot=        5346 NBatch=         243 AvBLen=        22.0
 PrSmSu:  NxtVal=            205.
 --------------------------------------------------------
       Center         ----      EFG at Nuclei      ----
                      3XX-RR        3YY-RR        3ZZ-RR
 --------------------------------------------------------
     1   Atom       -0.265769      0.162009      0.103759
     2   Atom        0.015470      0.005793     -0.021263
     3   Atom        0.093826     -0.225660      0.131834
     4   Atom        0.166195     -0.005569     -0.160626
     5   Atom       -0.028325      0.100021     -0.071696
     6   Atom        0.935439     -1.104362      0.168923
     7   Atom       -0.129213      0.022249      0.106964
     8   Atom        0.157678     -0.290444      0.132766
     9   Atom        0.125141      0.023988     -0.149129
    10   Atom        0.078592      0.098666     -0.177259
    11   Atom       -0.067589      0.021255      0.046334
    12   Atom       -0.157335      0.135168      0.022167
    13   Atom        0.144981      0.049833     -0.194814
    14   Atom       -0.250765      0.075750      0.175014
    15   Atom        0.058037      0.078677     -0.136714
    16   Atom        0.080001      0.088060     -0.168061
    17   Atom        0.153225     -0.284973      0.131748
    18   Atom        0.013262      0.002992     -0.016254
    19   Atom       -0.012148      0.105212     -0.093064
    20   Atom        0.104004     -0.123269      0.019265
    21   Atom       -0.108568     -0.131149      0.239717
    22   Atom        0.176108     -0.293750      0.117642
 --------------------------------------------------------
                        XY            XZ            YZ
 --------------------------------------------------------
     1   Atom        0.063660     -0.159051      0.019570
     2   Atom        0.037955      0.066660     -0.070770
     3   Atom       -0.167856     -0.042385     -0.123509
     4   Atom       -0.013408      0.027767      0.236399
     5   Atom        0.084407     -0.252731      0.265954
     6   Atom       -0.154935     -1.186914     -0.205132
     7   Atom        0.206860     -0.156948      0.114049
     8   Atom       -0.073175      0.019773      0.158554
     9   Atom       -0.005669      0.084004     -0.086066
    10   Atom        0.015864      0.073486     -0.121737
    11   Atom       -0.051797     -0.009136     -0.003095
    12   Atom       -0.155124      0.025402     -0.096797
    13   Atom        0.055276      0.078741     -0.100627
    14   Atom       -0.195608     -0.038374     -0.009100
    15   Atom        0.051498      0.035826     -0.089249
    16   Atom        0.030812      0.052500     -0.104820
    17   Atom       -0.074198      0.019618      0.164011
    18   Atom       -0.151119     -0.162969     -0.180779
    19   Atom        0.171535      0.181648     -0.061723
    20   Atom       -0.130285      0.103538      0.206516
    21   Atom       -0.391343      0.585059     -0.485342
    22   Atom       -0.171398     -0.038052     -0.275686
 --------------------------------------------------------


 ---------------------------------------------------------------------------------
              Nuclear Quadrupole Coupling Constant in Principal Axis System
 ---------------------------------------------------------------------------------

       Atom             a.u.   MegaHertz   Gauss  10(-4) cm-1        Axes

              Baa    -0.0921   -15.359    -5.481    -5.123  0.9066  0.4163  0.0692
    11 I(127) Bbb     0.0446     7.448     2.657     2.484 -0.3594  0.8476 -0.3905
              Bcc     0.0474     7.912     2.823     2.639 -0.2212  0.3292  0.9180
 
              Baa    -0.5503     2.643     0.943     0.882  0.8439  0.2226 -0.4882
    21 N(14)  Bbb    -0.4645     2.231     0.796     0.744  0.0774  0.8498  0.5213
              Bcc     1.0148    -4.874    -1.739    -1.626  0.5309 -0.4777  0.6999
 

 ---------------------------------------------------------------------------------

 No NMR shielding tensors so no spin-rotation constants.
 Leave Link  601 at Wed Nov 29 18:41:39 2017, MaxMem=  2147483648 cpu:         0.3
 FitSet:  NAtFit=    22 NAtPot=    22 NAtFrz=     0 MDM=    26 TotChg=   0.00000
 Merz-Kollman atomic radii used.
 Read replacement radii for each type of atom:
 Rad(53) =   1.990000000000D+00
 Atom Element Radius
    1     1    1.20
    2     6    1.50
    3     1    1.20
    4     1    1.20
    5     6    1.50
    6     8    1.40
    7     1    1.20
    8     1    1.20
    9     6    1.50
   10     6    1.50
   11    53    1.99
   12     6    1.50
   13     6    1.50
   14     1    1.20
   15     6    1.50
   16     6    1.50
   17     1    1.20
   18     1    1.20
   19     6    1.50
   20     1    1.20
   21     7    1.50
   22     1    1.20
 Generate VDW surfaces: Layer= 4 Dens= 6 Start= 1.400 Inc= 0.200

 **********************************************************************

            Electrostatic Properties Using The SCF Density

 **********************************************************************

       Atomic Center    1 is at   6.228909 -1.248547 -0.890207
       Atomic Center    2 is at   5.220639 -1.111095 -1.272976
       Atomic Center    3 is at   4.813490 -2.075875 -1.565994
       Atomic Center    4 is at   5.282022 -0.466457 -2.146190
       Atomic Center    5 is at   4.381322 -0.417437 -0.206562
       Atomic Center    6 is at   4.700662  0.699869  0.244834
       Atomic Center    7 is at  -1.749733  2.347445 -0.828413
       Atomic Center    8 is at   0.506632  3.363730 -0.638626
       Atomic Center    9 is at  -0.936797  1.780285 -0.413092
       Atomic Center   10 is at   0.348703  2.352498 -0.303399
       Atomic Center   11 is at  -3.068226 -0.426341 -0.113304
       Atomic Center   12 is at  -1.131819  0.461124  0.033814
       Atomic Center   13 is at   1.417945  1.619831  0.241212
       Atomic Center   14 is at   2.395543  2.060253  0.320324
       Atomic Center   15 is at  -0.070038 -0.285492  0.582394
       Atomic Center   16 is at   1.214351  0.291882  0.683436
       Atomic Center   17 is at  -0.237197 -1.290535  0.927708
       Atomic Center   18 is at   2.978741  0.108787  1.907281
       Atomic Center   19 is at   2.374182 -0.517221  1.264163
       Atomic Center   20 is at   1.991897 -1.343351  1.856062
       Atomic Center   21 is at   3.267531 -1.079701  0.234392
       Atomic Center   22 is at   3.016713 -1.946694 -0.190200
      ESP Fit Center   23 is at   6.228909 -1.248547  0.789793
      ESP Fit Center   24 is at   6.663725 -1.248547  0.732548
      ESP Fit Center   25 is at   6.446317 -0.871986  0.732548
      ESP Fit Center   26 is at   6.011501 -1.625109  0.732548
      ESP Fit Center   27 is at   6.446317 -1.625109  0.732548
      ESP Fit Center   28 is at   7.068909 -1.248547  0.564716
      ESP Fit Center   29 is at   6.956370 -0.828547  0.564716
      ESP Fit Center   30 is at   6.648909 -0.521086  0.564716
      ESP Fit Center   31 is at   5.808909 -1.976009  0.564716
      ESP Fit Center   32 is at   6.228909 -2.088547  0.564716
      ESP Fit Center   33 is at   6.648909 -1.976009  0.564716
      ESP Fit Center   34 is at   6.956370 -1.668547  0.564716
      ESP Fit Center   35 is at   7.416848 -1.248547  0.297732
      ESP Fit Center   36 is at   7.336630 -0.819414  0.297732
      ESP Fit Center   37 is at   7.106807 -0.448238  0.297732
      ESP Fit Center   38 is at   6.758419 -0.185148  0.297732
      ESP Fit Center   39 is at   5.903814 -2.391138  0.297732
      ESP Fit Center   40 is at   6.338518 -2.431419  0.297732
      ESP Fit Center   41 is at   6.758419 -2.311947  0.297732
      ESP Fit Center   42 is at   7.106807 -2.048857  0.297732
      ESP Fit Center   43 is at   7.336630 -1.677681  0.297732
      ESP Fit Center   44 is at   7.683832 -1.248547 -0.050207
      ESP Fit Center   45 is at   7.619194 -0.819701 -0.050207
      ESP Fit Center   46 is at   7.431023 -0.428960 -0.050207
      ESP Fit Center   47 is at   7.136038 -0.111043 -0.050207
      ESP Fit Center   48 is at   6.760452  0.105802 -0.050207
      ESP Fit Center   49 is at   6.337636 -2.699402 -0.050207
      ESP Fit Center   50 is at   6.760452 -2.602897 -0.050207
      ESP Fit Center   51 is at   7.136038 -2.386052 -0.050207
      ESP Fit Center   52 is at   7.431023 -2.068135 -0.050207
      ESP Fit Center   53 is at   7.619194 -1.677393 -0.050207
      ESP Fit Center   54 is at   7.851664 -1.248547 -0.455391
      ESP Fit Center   55 is at   7.796370 -0.828547 -0.455391
      ESP Fit Center   56 is at   7.634256 -0.437170 -0.455391
      ESP Fit Center   57 is at   7.376370 -0.101086 -0.455391
      ESP Fit Center   58 is at   7.040287  0.156800 -0.455391
      ESP Fit Center   59 is at   6.648909  0.318914 -0.455391
      ESP Fit Center   60 is at   6.228909 -2.871303 -0.455391
      ESP Fit Center   61 is at   6.648909 -2.816009 -0.455391
      ESP Fit Center   62 is at   7.040287 -2.653895 -0.455391
      ESP Fit Center   63 is at   7.376370 -2.396009 -0.455391
      ESP Fit Center   64 is at   7.634256 -2.059925 -0.455391
      ESP Fit Center   65 is at   7.796370 -1.668547 -0.455391
      ESP Fit Center   66 is at   7.908909 -1.248547 -0.890207
      ESP Fit Center   67 is at   7.856129 -0.830748 -0.890207
      ESP Fit Center   68 is at   7.701104 -0.439201 -0.890207
      ESP Fit Center   69 is at   7.453576 -0.098508 -0.890207
      ESP Fit Center   70 is at   7.129098  0.169923 -0.890207
      ESP Fit Center   71 is at   6.748058  0.349228 -0.890207
      ESP Fit Center   72 is at   6.334397 -2.925232 -0.890207
      ESP Fit Center   73 is at   6.748058 -2.846322 -0.890207
      ESP Fit Center   74 is at   7.129098 -2.667018 -0.890207
      ESP Fit Center   75 is at   7.453576 -2.398587 -0.890207
      ESP Fit Center   76 is at   7.701104 -2.057894 -0.890207
      ESP Fit Center   77 is at   7.856129 -1.666346 -0.890207
      ESP Fit Center   78 is at   7.851664 -1.248547 -1.325023
      ESP Fit Center   79 is at   7.796370 -0.828547 -1.325023
      ESP Fit Center   80 is at   7.634256 -0.437170 -1.325023
      ESP Fit Center   81 is at   7.376370 -0.101086 -1.325023
      ESP Fit Center   82 is at   7.040287  0.156800 -1.325023
      ESP Fit Center   83 is at   6.648909 -2.816009 -1.325023
      ESP Fit Center   84 is at   7.040287 -2.653895 -1.325023
      ESP Fit Center   85 is at   7.376370 -2.396009 -1.325023
      ESP Fit Center   86 is at   7.634256 -2.059925 -1.325023
      ESP Fit Center   87 is at   7.796370 -1.668547 -1.325023
      ESP Fit Center   88 is at   7.683832 -1.248547 -1.730207
      ESP Fit Center   89 is at   7.619194 -0.819701 -1.730207
      ESP Fit Center   90 is at   7.431023 -0.428960 -1.730207
      ESP Fit Center   91 is at   7.136038 -0.111043 -1.730207
      ESP Fit Center   92 is at   6.760452 -2.602897 -1.730207
      ESP Fit Center   93 is at   7.136038 -2.386052 -1.730207
      ESP Fit Center   94 is at   7.431023 -2.068135 -1.730207
      ESP Fit Center   95 is at   7.619194 -1.677393 -1.730207
      ESP Fit Center   96 is at   7.416848 -1.248547 -2.078146
      ESP Fit Center   97 is at   7.336630 -0.819414 -2.078146
      ESP Fit Center   98 is at   7.106807 -0.448238 -2.078146
      ESP Fit Center   99 is at   6.758419 -2.311947 -2.078146
      ESP Fit Center  100 is at   7.106807 -2.048857 -2.078146
      ESP Fit Center  101 is at   7.336630 -1.677681 -2.078146
      ESP Fit Center  102 is at   7.068909 -1.248547 -2.345130
      ESP Fit Center  103 is at   6.956370 -1.668547 -2.345130
      ESP Fit Center  104 is at   5.328288 -2.272816  0.473110
      ESP Fit Center  105 is at   5.740681 -2.155480  0.473110
      ESP Fit Center  106 is at   5.009312 -2.580905  0.211948
      ESP Fit Center  107 is at   5.431966 -2.580905  0.211948
      ESP Fit Center  108 is at   5.837499 -2.461830  0.211948
      ESP Fit Center  109 is at   5.431106 -2.844451 -0.106278
      ESP Fit Center  110 is at   5.839810 -2.743714 -0.106278
      ESP Fit Center  111 is at   5.739683 -2.980524 -0.469341
      ESP Fit Center  112 is at   6.639669  0.381723 -0.863286
      ESP Fit Center  113 is at   6.705563  0.373829 -1.272976
      ESP Fit Center  114 is at   6.387337  0.634991 -1.272976
      ESP Fit Center  115 is at   6.024274  0.829052 -1.272976
      ESP Fit Center  116 is at   6.310119 -2.859005 -1.682666
      ESP Fit Center  117 is at   6.981469 -0.296449 -2.076611
      ESP Fit Center  118 is at   3.382053 -0.491603 -2.076611
      ESP Fit Center  119 is at   3.291865 -0.901329 -2.076611
      ESP Fit Center  120 is at   3.291865 -1.320862 -2.076611
      ESP Fit Center  121 is at   6.476664 -2.589802 -2.076611
      ESP Fit Center  122 is at   6.966725 -1.111095 -2.439673
      ESP Fit Center  123 is at   3.525291 -0.693230 -2.439673
      ESP Fit Center  124 is at   3.474553 -1.111095 -2.439673
      ESP Fit Center  125 is at   6.212529 -2.548096 -2.439673
      ESP Fit Center  126 is at   6.527603 -2.268965 -2.439673
      ESP Fit Center  127 is at   6.766722 -1.922542 -2.439673
      ESP Fit Center  128 is at   6.915987 -1.528961 -2.439673
      ESP Fit Center  129 is at   3.735715 -1.111095 -2.757900
      ESP Fit Center  130 is at   6.193058 -2.233326 -2.757900
      ESP Fit Center  131 is at   6.469837 -1.913906 -2.757900
      ESP Fit Center  132 is at   6.645413 -1.529447 -2.757900
      ESP Fit Center  133 is at   4.073807 -1.325475 -3.019062
      ESP Fit Center  134 is at   5.740681 -2.155480 -3.019062
      ESP Fit Center  135 is at   6.082839 -1.897094 -3.019062
      ESP Fit Center  136 is at   6.308552 -1.532555 -3.019062
      ESP Fit Center  137 is at   5.220639 -1.914731 -3.213123
      ESP Fit Center  138 is at   5.622457 -1.807064 -3.213123
      ESP Fit Center  139 is at   4.813490 -2.915875 -0.111071
      ESP Fit Center  140 is at   4.488395 -3.218466 -0.378055
      ESP Fit Center  141 is at   4.923099 -3.258747 -0.378055
      ESP Fit Center  142 is at   5.343000 -3.139275 -0.378055
      ESP Fit Center  143 is at   4.086029 -3.335875 -0.725994
      ESP Fit Center  144 is at   4.489739 -3.494320 -0.725994
      ESP Fit Center  145 is at   4.922216 -3.526730 -0.725994
      ESP Fit Center  146 is at   5.345033 -3.430225 -0.725994
      ESP Fit Center  147 is at   5.720619 -3.213380 -0.725994
      ESP Fit Center  148 is at   3.666029 -3.223337 -1.131178
      ESP Fit Center  149 is at   4.002112 -3.481223 -1.131178
      ESP Fit Center  150 is at   4.393490 -3.643337 -1.131178
      ESP Fit Center  151 is at   4.813490 -3.698631 -1.131178
      ESP Fit Center  152 is at   5.233490 -3.643337 -1.131178
      ESP Fit Center  153 is at   5.624868 -3.481223 -1.131178
      ESP Fit Center  154 is at   5.960951 -3.223337 -1.131178
      ESP Fit Center  155 is at   3.454341 -3.063355 -1.565994
      ESP Fit Center  156 is at   3.742618 -3.370338 -1.565994
      ESP Fit Center  157 is at   4.098181 -3.595985 -1.565994
      ESP Fit Center  158 is at   4.498689 -3.726118 -1.565994
      ESP Fit Center  159 is at   4.918978 -3.752560 -1.565994
      ESP Fit Center  160 is at   5.332639 -3.673650 -1.565994
      ESP Fit Center  161 is at   5.713679 -3.494346 -1.565994
      ESP Fit Center  162 is at   6.038157 -3.225914 -1.565994
      ESP Fit Center  163 is at   3.246029 -1.655875 -2.000810
      ESP Fit Center  164 is at   3.190735 -2.075875 -2.000810
      ESP Fit Center  165 is at   3.246029 -2.495875 -2.000810
      ESP Fit Center  166 is at   3.408143 -2.887253 -2.000810
      ESP Fit Center  167 is at   3.666029 -3.223337 -2.000810
      ESP Fit Center  168 is at   4.002112 -3.481223 -2.000810
      ESP Fit Center  169 is at   4.393490 -3.643337 -2.000810
      ESP Fit Center  170 is at   4.813490 -3.698631 -2.000810
      ESP Fit Center  171 is at   5.233490 -3.643337 -2.000810
      ESP Fit Center  172 is at   5.624868 -3.481223 -2.000810
      ESP Fit Center  173 is at   5.960951 -3.223337 -2.000810
      ESP Fit Center  174 is at   6.218837 -2.887253 -2.000810
      ESP Fit Center  175 is at   3.374818 -1.859030 -2.405994
      ESP Fit Center  176 is at   3.374818 -2.292720 -2.405994
      ESP Fit Center  177 is at   3.502650 -2.707143 -2.405994
      ESP Fit Center  178 is at   3.746956 -3.065474 -2.405994
      ESP Fit Center  179 is at   4.086029 -3.335875 -2.405994
      ESP Fit Center  180 is at   4.489739 -3.494320 -2.405994
      ESP Fit Center  181 is at   4.922216 -3.526730 -2.405994
      ESP Fit Center  182 is at   5.345033 -3.430225 -2.405994
      ESP Fit Center  183 is at   5.720619 -3.213380 -2.405994
      ESP Fit Center  184 is at   6.015603 -2.895462 -2.405994
      ESP Fit Center  185 is at   3.645777 -1.857592 -2.753933
      ESP Fit Center  186 is at   3.645777 -2.294159 -2.753933
      ESP Fit Center  187 is at   3.803484 -2.701245 -2.753933
      ESP Fit Center  188 is at   4.097597 -3.023871 -2.753933
      ESP Fit Center  189 is at   4.488395 -3.218466 -2.753933
      ESP Fit Center  190 is at   4.923099 -3.258747 -2.753933
      ESP Fit Center  191 is at   5.343000 -3.139275 -2.753933
      ESP Fit Center  192 is at   5.691388 -2.876185 -2.753933
      ESP Fit Center  193 is at   5.921210 -2.505008 -2.753933
      ESP Fit Center  194 is at   4.086029 -1.655875 -3.020917
      ESP Fit Center  195 is at   3.973490 -2.075875 -3.020917
      ESP Fit Center  196 is at   4.086029 -2.495875 -3.020917
      ESP Fit Center  197 is at   4.393490 -2.803337 -3.020917
      ESP Fit Center  198 is at   4.813490 -2.915875 -3.020917
      ESP Fit Center  199 is at   5.233490 -2.803337 -3.020917
      ESP Fit Center  200 is at   5.540951 -2.495875 -3.020917
      ESP Fit Center  201 is at   5.248306 -2.075875 -3.188749
      ESP Fit Center  202 is at   4.378674 -2.075875 -3.188749
      ESP Fit Center  203 is at   4.596082 -2.452437 -3.188749
      ESP Fit Center  204 is at   5.030898 -2.452437 -3.188749
      ESP Fit Center  205 is at   4.813490 -2.075875 -3.245994
      ESP Fit Center  206 is at   6.687369  0.344920 -1.711374
      ESP Fit Center  207 is at   6.429483  0.681004 -1.711374
      ESP Fit Center  208 is at   6.093400  0.938890 -1.711374
      ESP Fit Center  209 is at   5.702022  1.101004 -1.711374
      ESP Fit Center  210 is at   5.282022  1.156298 -1.711374
      ESP Fit Center  211 is at   4.862022  1.101004 -1.711374
      ESP Fit Center  212 is at   6.909242 -0.048658 -2.146190
      ESP Fit Center  213 is at   6.754217  0.342889 -2.146190
      ESP Fit Center  214 is at   6.506689  0.683582 -2.146190
      ESP Fit Center  215 is at   6.182211  0.952014 -2.146190
      ESP Fit Center  216 is at   5.801171  1.131318 -2.146190
      ESP Fit Center  217 is at   5.387510  1.210228 -2.146190
      ESP Fit Center  218 is at   4.967221  1.183785 -2.146190
      ESP Fit Center  219 is at   4.566713  1.053652 -2.146190
      ESP Fit Center  220 is at   4.211150  0.828005 -2.146190
      ESP Fit Center  221 is at   3.922874  0.521022 -2.146190
      ESP Fit Center  222 is at   3.719998  0.151992 -2.146190
      ESP Fit Center  223 is at   6.904777 -0.466457 -2.581006
      ESP Fit Center  224 is at   6.849483 -0.046457 -2.581006
      ESP Fit Center  225 is at   6.687369  0.344920 -2.581006
      ESP Fit Center  226 is at   6.429483  0.681004 -2.581006
      ESP Fit Center  227 is at   6.093400  0.938890 -2.581006
      ESP Fit Center  228 is at   5.702022  1.101004 -2.581006
      ESP Fit Center  229 is at   5.282022  1.156298 -2.581006
      ESP Fit Center  230 is at   4.862022  1.101004 -2.581006
      ESP Fit Center  231 is at   4.470644  0.938890 -2.581006
      ESP Fit Center  232 is at   4.134561  0.681004 -2.581006
      ESP Fit Center  233 is at   3.876675  0.344920 -2.581006
      ESP Fit Center  234 is at   3.714561 -0.046457 -2.581006
      ESP Fit Center  235 is at   3.659267 -0.466457 -2.581006
      ESP Fit Center  236 is at   6.849483 -0.886457 -2.581006
      ESP Fit Center  237 is at   6.736945 -0.466457 -2.986190
      ESP Fit Center  238 is at   6.672307 -0.037611 -2.986190
      ESP Fit Center  239 is at   6.484136  0.353130 -2.986190
      ESP Fit Center  240 is at   6.189152  0.671047 -2.986190
      ESP Fit Center  241 is at   5.813565  0.887892 -2.986190
      ESP Fit Center  242 is at   5.390749  0.984397 -2.986190
      ESP Fit Center  243 is at   4.958271  0.951987 -2.986190
      ESP Fit Center  244 is at   4.554561  0.793543 -2.986190
      ESP Fit Center  245 is at   4.215488  0.523141 -2.986190
      ESP Fit Center  246 is at   3.971182  0.164810 -2.986190
      ESP Fit Center  247 is at   3.843350 -0.249612 -2.986190
      ESP Fit Center  248 is at   3.843350 -0.683302 -2.986190
      ESP Fit Center  249 is at   3.971182 -1.097725 -2.986190
      ESP Fit Center  250 is at   6.484136 -1.286044 -2.986190
      ESP Fit Center  251 is at   6.672307 -0.895303 -2.986190
      ESP Fit Center  252 is at   6.469961 -0.466457 -3.334129
      ESP Fit Center  253 is at   6.389743 -0.037324 -3.334129
      ESP Fit Center  254 is at   6.159920  0.333852 -3.334129
      ESP Fit Center  255 is at   5.811532  0.596942 -3.334129
      ESP Fit Center  256 is at   5.391631  0.716415 -3.334129
      ESP Fit Center  257 is at   4.956927  0.676133 -3.334129
      ESP Fit Center  258 is at   4.566129  0.481539 -3.334129
      ESP Fit Center  259 is at   4.272016  0.158912 -3.334129
      ESP Fit Center  260 is at   4.114310 -0.248174 -3.334129
      ESP Fit Center  261 is at   4.114310 -0.684741 -3.334129
      ESP Fit Center  262 is at   4.272016 -1.091827 -3.334129
      ESP Fit Center  263 is at   4.566129 -1.414453 -3.334129
      ESP Fit Center  264 is at   4.956927 -1.609048 -3.334129
      ESP Fit Center  265 is at   5.391631 -1.649329 -3.334129
      ESP Fit Center  266 is at   5.811532 -1.529857 -3.334129
      ESP Fit Center  267 is at   6.159920 -1.266767 -3.334129
      ESP Fit Center  268 is at   6.389743 -0.895591 -3.334129
      ESP Fit Center  269 is at   6.122022 -0.466457 -3.601113
      ESP Fit Center  270 is at   6.009483 -0.046457 -3.601113
      ESP Fit Center  271 is at   5.702022  0.261004 -3.601113
      ESP Fit Center  272 is at   5.282022  0.373543 -3.601113
      ESP Fit Center  273 is at   4.862022  0.261004 -3.601113
      ESP Fit Center  274 is at   4.554561 -0.046457 -3.601113
      ESP Fit Center  275 is at   4.442022 -0.466457 -3.601113
      ESP Fit Center  276 is at   4.554561 -0.886457 -3.601113
      ESP Fit Center  277 is at   4.862022 -1.193919 -3.601113
      ESP Fit Center  278 is at   5.282022 -1.306457 -3.601113
      ESP Fit Center  279 is at   5.702022 -1.193919 -3.601113
      ESP Fit Center  280 is at   6.009483 -0.886457 -3.601113
      ESP Fit Center  281 is at   5.716838 -0.466457 -3.768945
      ESP Fit Center  282 is at   5.499430 -0.089896 -3.768945
      ESP Fit Center  283 is at   5.064614 -0.089896 -3.768945
      ESP Fit Center  284 is at   4.847206 -0.466457 -3.768945
      ESP Fit Center  285 is at   5.064614 -0.843019 -3.768945
      ESP Fit Center  286 is at   5.499430 -0.843019 -3.768945
      ESP Fit Center  287 is at   5.282022 -0.466457 -3.826190
      ESP Fit Center  288 is at   4.791012 -0.417437  1.853087
      ESP Fit Center  289 is at   4.586167 -0.772239  1.853087
      ESP Fit Center  290 is at   4.783140 -1.113406  1.733585
      ESP Fit Center  291 is at   5.077291 -0.819255  1.733585
      ESP Fit Center  292 is at   4.901364 -1.461822  1.539524
      ESP Fit Center  293 is at   5.243522 -1.203436  1.539524
      ESP Fit Center  294 is at   5.469235 -0.838897  1.539524
      ESP Fit Center  295 is at   4.998182 -1.768172  1.278362
      ESP Fit Center  296 is at   5.353741 -1.539668  1.278362
      ESP Fit Center  297 is at   5.630520 -1.220248  1.278362
      ESP Fit Center  298 is at   5.806096 -0.835789  1.278362
      ESP Fit Center  299 is at   5.000493 -2.050056  0.960136
      ESP Fit Center  300 is at   5.373212 -1.854438  0.960136
      ESP Fit Center  301 is at   5.688286 -1.575307  0.960136
      ESP Fit Center  302 is at   5.927405 -1.228884  0.960136
      ESP Fit Center  303 is at   6.076670 -0.835303  0.960136
      ESP Fit Center  304 is at   6.321469 -0.417437  0.597073
      ESP Fit Center  305 is at   5.290103 -2.131581  0.597073
      ESP Fit Center  306 is at   2.972784  0.916801 -1.010197
      ESP Fit Center  307 is at   3.389432  1.019564 -1.373259
      ESP Fit Center  308 is at   3.074358  0.740432 -1.373259
      ESP Fit Center  309 is at   2.835240  0.394009 -1.373259
      ESP Fit Center  310 is at   4.592649  1.052373 -1.691486
      ESP Fit Center  311 is at   4.169995  1.052373 -1.691486
      ESP Fit Center  312 is at   3.764462  0.933297 -1.691486
      ESP Fit Center  313 is at   3.408904  0.704794 -1.691486
      ESP Fit Center  314 is at   3.132124  0.385373 -1.691486
      ESP Fit Center  315 is at   2.956548  0.000914 -1.691486
      ESP Fit Center  316 is at   4.062040  0.704722 -1.952648
      ESP Fit Center  317 is at   3.678230  0.513607 -1.952648
      ESP Fit Center  318 is at   3.389376  0.196750 -1.952648
      ESP Fit Center  319 is at   3.234490 -0.203057 -1.952648
      ESP Fit Center  320 is at   3.234490 -0.631817 -1.952648
      ESP Fit Center  321 is at   4.700662  0.699869  2.204834
      ESP Fit Center  322 is at   5.108169  0.699869  2.162003
      ESP Fit Center  323 is at   4.904416  1.052780  2.162003
      ESP Fit Center  324 is at   4.496909  1.052780  2.162003
      ESP Fit Center  325 is at   4.904416  0.346957  2.162003
      ESP Fit Center  326 is at   5.497866  0.699869  2.035383
      ESP Fit Center  327 is at   5.391061  1.098471  2.035383
      ESP Fit Center  328 is at   5.099264  1.390267  2.035383
      ESP Fit Center  329 is at   4.700662  1.497073  2.035383
      ESP Fit Center  330 is at   4.302060  1.390267  2.035383
      ESP Fit Center  331 is at   4.700662 -0.097335  2.035383
      ESP Fit Center  332 is at   5.099264  0.009470  2.035383
      ESP Fit Center  333 is at   5.391061  0.301267  2.035383
      ESP Fit Center  334 is at   5.852721  0.699869  1.830507
      ESP Fit Center  335 is at   5.774925  1.116040  1.830507
      ESP Fit Center  336 is at   5.552044  1.476006  1.830507
      ESP Fit Center  337 is at   5.214179  1.731150  1.830507
      ESP Fit Center  338 is at   4.806961  1.847013  1.830507
      ESP Fit Center  339 is at   4.385386  1.807949  1.830507
      ESP Fit Center  340 is at   4.006392  1.619232  1.830507
      ESP Fit Center  341 is at   5.214179 -0.331412  1.830507
      ESP Fit Center  342 is at   5.552044 -0.076268  1.830507
      ESP Fit Center  343 is at   5.774925  0.283697  1.830507
      ESP Fit Center  344 is at   6.157226  0.699869  1.556330
      ESP Fit Center  345 is at   6.098225  1.110230  1.556330
      ESP Fit Center  346 is at   5.926002  1.487347  1.556330
      ESP Fit Center  347 is at   5.654509  1.800666  1.556330
      ESP Fit Center  348 is at   5.305741  2.024806  1.556330
      ESP Fit Center  349 is at   4.907953  2.141607  1.556330
      ESP Fit Center  350 is at   4.493372  2.141607  1.556330
      ESP Fit Center  351 is at   4.095584  2.024806  1.556330
      ESP Fit Center  352 is at   3.746816  1.800666  1.556330
      ESP Fit Center  353 is at   5.654509 -0.400929  1.556330
      ESP Fit Center  354 is at   5.926002 -0.087609  1.556330
      ESP Fit Center  355 is at   6.098225  0.289507  1.556330
      ESP Fit Center  356 is at   6.398072  0.699869  1.224834
      ESP Fit Center  357 is at   6.344745  1.121997  1.224834
      ESP Fit Center  358 is at   6.188114  1.517602  1.224834
      ESP Fit Center  359 is at   5.938021  1.861826  1.224834
      ESP Fit Center  360 is at   5.610180  2.133039  1.224834
      ESP Fit Center  361 is at   5.225191  2.314201  1.224834
      ESP Fit Center  362 is at   4.807243  2.393929  1.224834
      ESP Fit Center  363 is at   4.382599  2.367213  1.224834
      ESP Fit Center  364 is at   3.977940  2.235731  1.224834
      ESP Fit Center  365 is at   5.938021 -0.462088  1.224834
      ESP Fit Center  366 is at   6.188114 -0.117865  1.224834
      ESP Fit Center  367 is at   6.344745  0.277740  1.224834
      ESP Fit Center  368 is at   6.564733  0.699869  0.850507
      ESP Fit Center  369 is at   6.517997  1.114663  0.850507
      ESP Fit Center  370 is at   6.380132  1.508659  0.850507
      ESP Fit Center  371 is at   6.158051  1.862098  0.850507
      ESP Fit Center  372 is at   5.862891  2.157258  0.850507
      ESP Fit Center  373 is at   5.509452  2.379338  0.850507
      ESP Fit Center  374 is at   5.115457  2.517203  0.850507
      ESP Fit Center  375 is at   4.700662  2.563939  0.850507
      ESP Fit Center  376 is at   4.285867  2.517203  0.850507
      ESP Fit Center  377 is at   6.380132 -0.108921  0.850507
      ESP Fit Center  378 is at   6.517997  0.285074  0.850507
      ESP Fit Center  379 is at   6.649925  0.699869  0.449710
      ESP Fit Center  380 is at   6.604352  1.118903  0.449710
      ESP Fit Center  381 is at   6.469765  1.518343  0.449710
      ESP Fit Center  382 is at   6.252457  1.879512  0.449710
      ESP Fit Center  383 is at   5.962588  2.185523  0.449710
      ESP Fit Center  384 is at   5.613713  2.422066  0.449710
      ESP Fit Center  385 is at   5.222145  2.578081  0.449710
      ESP Fit Center  386 is at   4.806193  2.646273  0.449710
      ESP Fit Center  387 is at   4.385307  2.623453  0.449710
      ESP Fit Center  388 is at   6.469765 -0.118606  0.449710
      ESP Fit Center  389 is at   6.604352  0.280835  0.449710
      ESP Fit Center  390 is at   6.649925  0.699869  0.039958
      ESP Fit Center  391 is at   6.604352  1.118903  0.039958
      ESP Fit Center  392 is at   6.469765  1.518343  0.039958
      ESP Fit Center  393 is at   6.252457  1.879512  0.039958
      ESP Fit Center  394 is at   5.962588  2.185523  0.039958
      ESP Fit Center  395 is at   5.613713  2.422066  0.039958
      ESP Fit Center  396 is at   5.222145  2.578081  0.039958
      ESP Fit Center  397 is at   4.806193  2.646273  0.039958
      ESP Fit Center  398 is at   4.385307  2.623453  0.039958
      ESP Fit Center  399 is at   6.604352  0.280835  0.039958
      ESP Fit Center  400 is at   6.564733  0.699869 -0.360839
      ESP Fit Center  401 is at   6.517997  1.114663 -0.360839
      ESP Fit Center  402 is at   6.380132  1.508659 -0.360839
      ESP Fit Center  403 is at   6.158051  1.862098 -0.360839
      ESP Fit Center  404 is at   5.862891  2.157258 -0.360839
      ESP Fit Center  405 is at   5.509452  2.379338 -0.360839
      ESP Fit Center  406 is at   5.115457  2.517203 -0.360839
      ESP Fit Center  407 is at   4.700662  2.563939 -0.360839
      ESP Fit Center  408 is at   4.285867  2.517203 -0.360839
      ESP Fit Center  409 is at   6.398072  0.699869 -0.735166
      ESP Fit Center  410 is at   6.344745  1.121997 -0.735166
      ESP Fit Center  411 is at   6.188114  1.517602 -0.735166
      ESP Fit Center  412 is at   5.938021  1.861826 -0.735166
      ESP Fit Center  413 is at   5.610180  2.133039 -0.735166
      ESP Fit Center  414 is at   5.225191  2.314201 -0.735166
      ESP Fit Center  415 is at   4.807243  2.393929 -0.735166
      ESP Fit Center  416 is at   4.382599  2.367213 -0.735166
      ESP Fit Center  417 is at   3.977940  2.235731 -0.735166
      ESP Fit Center  418 is at   6.098225  1.110230 -1.066662
      ESP Fit Center  419 is at   5.926002  1.487347 -1.066662
      ESP Fit Center  420 is at   5.654509  1.800666 -1.066662
      ESP Fit Center  421 is at   5.305741  2.024806 -1.066662
      ESP Fit Center  422 is at   4.907953  2.141607 -1.066662
      ESP Fit Center  423 is at   4.493372  2.141607 -1.066662
      ESP Fit Center  424 is at   4.095584  2.024806 -1.066662
      ESP Fit Center  425 is at   3.746816  1.800666 -1.066662
      ESP Fit Center  426 is at   3.475323  1.487347 -1.066662
      ESP Fit Center  427 is at   5.774925  1.116040 -1.340839
      ESP Fit Center  428 is at   5.552044  1.476006 -1.340839
      ESP Fit Center  429 is at   5.214179  1.731150 -1.340839
      ESP Fit Center  430 is at   4.806961  1.847013 -1.340839
      ESP Fit Center  431 is at   4.385386  1.807949 -1.340839
      ESP Fit Center  432 is at   4.006392  1.619232 -1.340839
      ESP Fit Center  433 is at   3.721162  1.306350 -1.340839
      ESP Fit Center  434 is at   5.099264  1.390267 -1.545715
      ESP Fit Center  435 is at   4.700662  1.497073 -1.545715
      ESP Fit Center  436 is at   4.302060  1.390267 -1.545715
      ESP Fit Center  437 is at  -2.477194  2.767445  0.626510
      ESP Fit Center  438 is at  -2.074828  3.490036  0.359526
      ESP Fit Center  439 is at  -2.465626  3.295441  0.359526
      ESP Fit Center  440 is at  -2.759739  2.972815  0.359526
      ESP Fit Center  441 is at  -2.917445  2.565729  0.359526
      ESP Fit Center  442 is at  -1.641006  3.798300  0.011587
      ESP Fit Center  443 is at  -2.073483  3.765890  0.011587
      ESP Fit Center  444 is at  -2.477194  3.607445  0.011587
      ESP Fit Center  445 is at  -2.816266  3.337044  0.011587
      ESP Fit Center  446 is at  -3.060573  2.978713  0.011587
      ESP Fit Center  447 is at  -3.188405  2.564290  0.011587
      ESP Fit Center  448 is at  -1.329733  3.914907 -0.393597
      ESP Fit Center  449 is at  -1.749733  3.970201 -0.393597
      ESP Fit Center  450 is at  -2.169733  3.914907 -0.393597
      ESP Fit Center  451 is at  -2.561110  3.752793 -0.393597
      ESP Fit Center  452 is at  -2.897194  3.494907 -0.393597
      ESP Fit Center  453 is at  -3.155080  3.158823 -0.393597
      ESP Fit Center  454 is at  -3.317194  2.767445 -0.393597
      ESP Fit Center  455 is at  -3.372488  2.347445 -0.393597
      ESP Fit Center  456 is at  -1.230584  3.945220 -0.828413
      ESP Fit Center  457 is at  -1.644245  4.024130 -0.828413
      ESP Fit Center  458 is at  -2.064533  3.997688 -0.828413
      ESP Fit Center  459 is at  -2.465042  3.867555 -0.828413
      ESP Fit Center  460 is at  -2.820605  3.641908 -0.828413
      ESP Fit Center  461 is at  -3.108881  3.334925 -0.828413
      ESP Fit Center  462 is at  -3.311757  2.965895 -0.828413
      ESP Fit Center  463 is at  -3.416485  2.558005 -0.828413
      ESP Fit Center  464 is at  -1.329733  3.914907 -1.263229
      ESP Fit Center  465 is at  -1.749733  3.970201 -1.263229
      ESP Fit Center  466 is at  -2.169733  3.914907 -1.263229
      ESP Fit Center  467 is at  -2.561110  3.752793 -1.263229
      ESP Fit Center  468 is at  -2.897194  3.494907 -1.263229
      ESP Fit Center  469 is at  -3.155080  3.158823 -1.263229
      ESP Fit Center  470 is at  -3.317194  2.767445 -1.263229
      ESP Fit Center  471 is at  -3.372488  2.347445 -1.263229
      ESP Fit Center  472 is at  -0.842603  3.484950 -1.668413
      ESP Fit Center  473 is at  -1.218190  3.701795 -1.668413
      ESP Fit Center  474 is at  -1.641006  3.798300 -1.668413
      ESP Fit Center  475 is at  -2.073483  3.765890 -1.668413
      ESP Fit Center  476 is at  -2.477194  3.607445 -1.668413
      ESP Fit Center  477 is at  -2.816266  3.337044 -1.668413
      ESP Fit Center  478 is at  -3.060573  2.978713 -1.668413
      ESP Fit Center  479 is at  -3.188405  2.564290 -1.668413
      ESP Fit Center  480 is at  -3.188405  2.130600 -1.668413
      ESP Fit Center  481 is at  -0.871835  3.147755 -2.016352
      ESP Fit Center  482 is at  -1.220222  3.410845 -2.016352
      ESP Fit Center  483 is at  -1.640123  3.530317 -2.016352
      ESP Fit Center  484 is at  -2.074828  3.490036 -2.016352
      ESP Fit Center  485 is at  -2.465626  3.295441 -2.016352
      ESP Fit Center  486 is at  -2.759739  2.972815 -2.016352
      ESP Fit Center  487 is at  -2.917445  2.565729 -2.016352
      ESP Fit Center  488 is at  -2.917445  2.129162 -2.016352
      ESP Fit Center  489 is at  -2.759739  1.722076 -2.016352
      ESP Fit Center  490 is at  -1.022271  2.767445 -2.283336
      ESP Fit Center  491 is at  -1.329733  3.074907 -2.283336
      ESP Fit Center  492 is at  -1.749733  3.187445 -2.283336
      ESP Fit Center  493 is at  -2.169733  3.074907 -2.283336
      ESP Fit Center  494 is at  -2.477194  2.767445 -2.283336
      ESP Fit Center  495 is at  -2.589733  2.347445 -2.283336
      ESP Fit Center  496 is at  -2.477194  1.927445 -2.283336
      ESP Fit Center  497 is at  -2.169733  1.619984 -2.283336
      ESP Fit Center  498 is at  -1.314917  2.347445 -2.451168
      ESP Fit Center  499 is at  -1.532325  2.724007 -2.451168
      ESP Fit Center  500 is at  -1.967141  2.724007 -2.451168
      ESP Fit Center  501 is at  -2.184549  2.347445 -2.451168
      ESP Fit Center  502 is at  -1.967141  1.970884 -2.451168
      ESP Fit Center  503 is at  -1.532325  1.970884 -2.451168
      ESP Fit Center  504 is at  -1.749733  2.347445 -2.508413
      ESP Fit Center  505 is at   0.926632  4.091191  0.816297
      ESP Fit Center  506 is at   0.506632  4.203730  0.816297
      ESP Fit Center  507 is at   1.384530  4.164040  0.549313
      ESP Fit Center  508 is at   1.036143  4.427130  0.549313
      ESP Fit Center  509 is at   0.616242  4.546602  0.549313
      ESP Fit Center  510 is at   0.181537  4.506321  0.549313
      ESP Fit Center  511 is at  -0.209261  4.311726  0.549313
      ESP Fit Center  512 is at   1.896917  3.792576  0.201374
      ESP Fit Center  513 is at   1.708746  4.183317  0.201374
      ESP Fit Center  514 is at   1.413762  4.501234  0.201374
      ESP Fit Center  515 is at   1.038175  4.718079  0.201374
      ESP Fit Center  516 is at   0.615359  4.814585  0.201374
      ESP Fit Center  517 is at   0.182882  4.782175  0.201374
      ESP Fit Center  518 is at  -0.220829  4.623730  0.201374
      ESP Fit Center  519 is at  -0.559901  4.353329  0.201374
      ESP Fit Center  520 is at   2.074094  3.783730 -0.203810
      ESP Fit Center  521 is at   1.911980  4.175108 -0.203810
      ESP Fit Center  522 is at   1.654094  4.511191 -0.203810
      ESP Fit Center  523 is at   1.318010  4.769078 -0.203810
      ESP Fit Center  524 is at   0.926632  4.931191 -0.203810
      ESP Fit Center  525 is at   0.506632  4.986486 -0.203810
      ESP Fit Center  526 is at   0.086632  4.931191 -0.203810
      ESP Fit Center  527 is at  -0.304745  4.769078 -0.203810
      ESP Fit Center  528 is at  -0.640829  4.511191 -0.203810
      ESP Fit Center  529 is at  -0.898715  4.175108 -0.203810
      ESP Fit Center  530 is at   2.133852  3.781529 -0.638626
      ESP Fit Center  531 is at   1.978828  4.173076 -0.638626
      ESP Fit Center  532 is at   1.731300  4.513769 -0.638626
      ESP Fit Center  533 is at   1.406821  4.782201 -0.638626
[...]
   D34        0.01607   0.00000   0.00000  -0.00001  -0.00001   0.01605
   D35        0.71459   0.00000   0.00000   0.00000   0.00000   0.71458
   D36        2.79515   0.00000   0.00000   0.00000   0.00000   2.79515
   D37       -1.38265   0.00000   0.00000   0.00000   0.00000  -1.38265
   D38       -2.42953   0.00000   0.00000   0.00001   0.00001  -2.42952
   D39       -0.34896   0.00000   0.00000   0.00001   0.00001  -0.34895
   D40        1.75643   0.00000   0.00000   0.00001   0.00001   1.75644
   D41        1.60634   0.00000   0.00000  -0.00002  -0.00002   1.60632
   D42       -1.47003   0.00000   0.00000   0.00000   0.00000  -1.47004
   D43       -0.51843   0.00000   0.00000  -0.00001  -0.00001  -0.51845
   D44        2.68838   0.00000   0.00000   0.00000   0.00000   2.68838
   D45       -2.54835   0.00000   0.00000  -0.00002  -0.00002  -2.54836
   D46        0.65847   0.00000   0.00000   0.00000   0.00000   0.65847
         Item               Value     Threshold  Converged?
 Maximum Force            0.000002     0.000450     YES
 RMS     Force            0.000000     0.000300     YES
 Maximum Displacement     0.000057     0.001800     YES
 RMS     Displacement     0.000015     0.001200     YES
 Predicted change in Energy=-1.266583D-10
 Optimization completed.
    -- Stationary point found.
                           ----------------------------
                           !   Optimized Parameters   !
                           ! (Angstroms and Degrees)  !
 --------------------------                            --------------------------
 ! Name  Definition              Value          Derivative Info.                !
 --------------------------------------------------------------------------------
 ! R1    R(1,2)                  1.0872         -DE/DX =    0.0                 !
 ! R2    R(2,3)                  1.0874         -DE/DX =    0.0                 !
 ! R3    R(2,4)                  1.0871         -DE/DX =    0.0                 !
 ! R4    R(2,5)                  1.5241         -DE/DX =    0.0                 !
 ! R5    R(5,6)                  1.2466         -DE/DX =    0.0                 !
 ! R6    R(5,21)                 1.3688         -DE/DX =    0.0                 !
 ! R7    R(7,9)                  1.0747         -DE/DX =    0.0                 !
 ! R8    R(8,10)                 1.077          -DE/DX =    0.0                 !
 ! R9    R(9,10)                 1.4114         -DE/DX =    0.0                 !
 ! R10   R(9,12)                 1.4064         -DE/DX =    0.0                 !
 ! R11   R(10,13)                1.4059         -DE/DX =    0.0                 !
 ! R12   R(11,12)                2.1352         -DE/DX =    0.0                 !
 ! R13   R(12,15)                1.4092         -DE/DX =    0.0                 !
 ! R14   R(13,14)                1.0751         -DE/DX =    0.0                 !
 ! R15   R(13,16)                1.4144         -DE/DX =    0.0                 !
 ! R16   R(15,16)                1.4118         -DE/DX =    0.0                 !
 ! R17   R(15,17)                1.0758         -DE/DX =    0.0                 !
 ! R18   R(16,19)                1.5288         -DE/DX =    0.0                 !
 ! R19   R(18,19)                1.0821         -DE/DX =    0.0                 !
 ! R20   R(19,20)                1.0858         -DE/DX =    0.0                 !
 ! R21   R(19,21)                1.4747         -DE/DX =    0.0                 !
 ! R22   R(21,22)                0.9974         -DE/DX =    0.0                 !
 ! A1    A(1,2,3)              109.2652         -DE/DX =    0.0                 !
 ! A2    A(1,2,4)              107.7821         -DE/DX =    0.0                 !
 ! A3    A(1,2,5)              108.7788         -DE/DX =    0.0                 !
 ! A4    A(3,2,4)              109.3179         -DE/DX =    0.0                 !
 ! A5    A(3,2,5)              112.7158         -DE/DX =    0.0                 !
 ! A6    A(4,2,5)              108.8591         -DE/DX =    0.0                 !
 ! A7    A(2,5,6)              121.3457         -DE/DX =    0.0                 !
 ! A8    A(2,5,21)             116.9565         -DE/DX =    0.0                 !
 ! A9    A(6,5,21)             121.6973         -DE/DX =    0.0                 !
 ! A10   A(7,9,10)             120.3336         -DE/DX =    0.0                 !
 ! A11   A(7,9,12)             120.8574         -DE/DX =    0.0                 !
 ! A12   A(10,9,12)            118.8087         -DE/DX =    0.0                 !
 ! A13   A(8,10,9)             119.3436         -DE/DX =    0.0                 !
 ! A14   A(8,10,13)            119.8911         -DE/DX =    0.0                 !
 ! A15   A(9,10,13)            120.7649         -DE/DX =    0.0                 !
 ! A16   A(9,12,11)            119.5859         -DE/DX =    0.0                 !
 ! A17   A(9,12,15)            121.0767         -DE/DX =    0.0                 !
 ! A18   A(11,12,15)           119.3371         -DE/DX =    0.0                 !
 ! A19   A(10,13,14)           120.4341         -DE/DX =    0.0                 !
 ! A20   A(10,13,16)           120.0608         -DE/DX =    0.0                 !
 ! A21   A(14,13,16)           119.5043         -DE/DX =    0.0                 !
 ! A22   A(12,15,16)           119.7791         -DE/DX =    0.0                 !
 ! A23   A(12,15,17)           120.1901         -DE/DX =    0.0                 !
 ! A24   A(16,15,17)           120.0302         -DE/DX =    0.0                 !
 ! A25   A(13,16,15)           119.508          -DE/DX =    0.0                 !
 ! A26   A(13,16,19)           120.4295         -DE/DX =    0.0                 !
 ! A27   A(15,16,19)           120.0624         -DE/DX =    0.0                 !
 ! A28   A(16,19,18)           110.0868         -DE/DX =    0.0                 !
 ! A29   A(16,19,20)           110.0382         -DE/DX =    0.0                 !
 ! A30   A(16,19,21)           113.3402         -DE/DX =    0.0                 !
 ! A31   A(18,19,20)           108.2325         -DE/DX =    0.0                 !
 ! A32   A(18,19,21)           107.29           -DE/DX =    0.0                 !
 ! A33   A(20,19,21)           107.6815         -DE/DX =    0.0                 !
 ! A34   A(5,21,19)            122.2304         -DE/DX =    0.0                 !
 ! A35   A(5,21,22)            119.2122         -DE/DX =    0.0                 !
 ! A36   A(19,21,22)           118.4535         -DE/DX =    0.0                 !
 ! D1    D(1,2,5,6)             58.7731         -DE/DX =    0.0                 !
 ! D2    D(1,2,5,21)          -120.9582         -DE/DX =    0.0                 !
 ! D3    D(3,2,5,6)           -179.8854         -DE/DX =    0.0                 !
 ! D4    D(3,2,5,21)             0.3832         -DE/DX =    0.0                 !
 ! D5    D(4,2,5,6)            -58.4211         -DE/DX =    0.0                 !
 ! D6    D(4,2,5,21)           121.8475         -DE/DX =    0.0                 !
 ! D7    D(2,5,21,19)          179.9038         -DE/DX =    0.0                 !
 ! D8    D(2,5,21,22)           -3.8606         -DE/DX =    0.0                 !
 ! D9    D(6,5,21,19)            0.1735         -DE/DX =    0.0                 !
 ! D10   D(6,5,21,22)          176.4091         -DE/DX =    0.0                 !
 ! D11   D(7,9,10,8)             0.0938         -DE/DX =    0.0                 !
 ! D12   D(7,9,10,13)          179.8571         -DE/DX =    0.0                 !
 ! D13   D(12,9,10,8)         -179.7094         -DE/DX =    0.0                 !
 ! D14   D(12,9,10,13)           0.0539         -DE/DX =    0.0                 !
 ! D15   D(7,9,12,11)           -0.0416         -DE/DX =    0.0                 !
 ! D16   D(7,9,12,15)         -179.8298         -DE/DX =    0.0                 !
 ! D17   D(10,9,12,11)         179.7605         -DE/DX =    0.0                 !
 ! D18   D(10,9,12,15)          -0.0277         -DE/DX =    0.0                 !
 ! D19   D(8,10,13,14)          -0.3693         -DE/DX =    0.0                 !
 ! D20   D(8,10,13,16)         179.9558         -DE/DX =    0.0                 !
 ! D21   D(9,10,13,14)         179.8686         -DE/DX =    0.0                 !
 ! D22   D(9,10,13,16)           0.1937         -DE/DX =    0.0                 !
 ! D23   D(9,12,15,16)          -0.2459         -DE/DX =    0.0                 !
 ! D24   D(9,12,15,17)         179.4662         -DE/DX =    0.0                 !
 ! D25   D(11,12,15,16)        179.9653         -DE/DX =    0.0                 !
 ! D26   D(11,12,15,17)         -0.3226         -DE/DX =    0.0                 !
 ! D27   D(10,13,16,15)         -0.4654         -DE/DX =    0.0                 !
 ! D28   D(10,13,16,19)        179.391          -DE/DX =    0.0                 !
 ! D29   D(14,13,16,15)        179.8567         -DE/DX =    0.0                 !
 ! D30   D(14,13,16,19)         -0.2869         -DE/DX =    0.0                 !
 ! D31   D(12,15,16,13)          0.4899         -DE/DX =    0.0                 !
 ! D32   D(12,15,16,19)       -179.367          -DE/DX =    0.0                 !
 ! D33   D(17,15,16,13)       -179.2226         -DE/DX =    0.0                 !
 ! D34   D(17,15,16,19)          0.9205         -DE/DX =    0.0                 !
 ! D35   D(13,16,19,18)         40.9427         -DE/DX =    0.0                 !
 ! D36   D(13,16,19,20)        160.1505         -DE/DX =    0.0                 !
 ! D37   D(13,16,19,21)        -79.2198         -DE/DX =    0.0                 !
 ! D38   D(15,16,19,18)       -139.2017         -DE/DX =    0.0                 !
 ! D39   D(15,16,19,20)        -19.9939         -DE/DX =    0.0                 !
 ! D40   D(15,16,19,21)        100.6358         -DE/DX =    0.0                 !
 ! D41   D(16,19,21,5)          92.0362         -DE/DX =    0.0                 !
 ! D42   D(16,19,21,22)        -84.2267         -DE/DX =    0.0                 !
 ! D43   D(18,19,21,5)         -29.704          -DE/DX =    0.0                 !
 ! D44   D(18,19,21,22)        154.033          -DE/DX =    0.0                 !
 ! D45   D(20,19,21,5)        -146.0095         -DE/DX =    0.0                 !
 ! D46   D(20,19,21,22)         37.7276         -DE/DX =    0.0                 !
 --------------------------------------------------------------------------------
 GradGradGradGradGradGradGradGradGradGradGradGradGradGradGradGradGradGrad

                          Input orientation:                          
 ---------------------------------------------------------------------
 Center     Atomic      Atomic             Coordinates (Angstroms)
 Number     Number       Type             X           Y           Z
 ---------------------------------------------------------------------
      1          1           0        6.228909   -1.248547   -0.890207
      2          6           0        5.220639   -1.111095   -1.272976
      3          1           0        4.813490   -2.075875   -1.565994
      4          1           0        5.282022   -0.466457   -2.146190
      5          6           0        4.381322   -0.417437   -0.206562
      6          8           0        4.700662    0.699869    0.244834
      7          1           0       -1.749733    2.347445   -0.828413
      8          1           0        0.506632    3.363730   -0.638626
      9          6           0       -0.936797    1.780285   -0.413092
     10          6           0        0.348703    2.352498   -0.303399
     11         53           0       -3.068226   -0.426341   -0.113304
     12          6           0       -1.131819    0.461124    0.033814
     13          6           0        1.417945    1.619831    0.241212
     14          1           0        2.395543    2.060253    0.320324
     15          6           0       -0.070038   -0.285492    0.582394
     16          6           0        1.214351    0.291882    0.683436
     17          1           0       -0.237197   -1.290535    0.927708
     18          1           0        2.978741    0.108787    1.907281
     19          6           0        2.374182   -0.517221    1.264163
     20          1           0        1.991897   -1.343351    1.856062
     21          7           0        3.267531   -1.079701    0.234392
     22          1           0        3.016713   -1.946694   -0.190200
 ---------------------------------------------------------------------
                    Distance matrix (angstroms):
                    1          2          3          4          5
     1  H    0.000000
     2  C    1.087204   0.000000
     3  H    1.773294   1.087396   0.000000
     4  H    1.756631   1.087119   1.773803   0.000000
     5  C    2.138152   1.524091   2.187519   2.139117   0.000000
     6  O    2.724001   2.419445   3.316110   2.723103   1.246639
     7  H    8.751783   7.793922   7.948942   7.687663   6.754340
     8  H    7.353968   6.530568   6.999881   6.304556   5.431126
     9  C    7.794152   6.856639   7.018900   6.835582   5.758040
    10  C    6.920166   6.055767   6.413966   5.973276   4.893254
    11  I    9.365699   8.397560   8.182464   8.594235   7.450137
    12  C    7.612956   6.673327   6.659013   6.837410   5.587877
    13  C    5.714287   4.920488   5.334226   4.998337   3.623888
    14  H    5.206557   4.536212   5.149002   4.560671   3.218676
    15  C    6.540089   5.667035   5.627601   6.010197   4.522661
    16  C    5.476775   4.673996   4.860042   5.012765   3.365254
    17  H    6.716927   5.887545   5.687244   6.371007   4.835244
    18  H    4.497987   4.077776   4.494740   4.697514   2.590845
    19  C    4.476055   3.859026   4.048384   4.482033   2.490301
    20  H    5.050074   4.502177   4.495380   5.254701   3.289542
    21  N    3.172222   2.467342   2.573663   3.178272   1.368782
    22  H    3.360896   2.593823   2.266695   3.338955   2.049647
                    6          7          8          9         10
     6  O    0.000000
     7  H    6.743438   0.000000
     8  H    5.046439   2.481942   0.000000
     9  C    5.777639   1.074722   2.154449   0.000000
    10  C    4.687354   2.163122   1.076991   1.411372   0.000000
    11  I    7.858259   3.153362   5.236431   3.082541   4.408343
    12  C    5.841178   2.164130   3.400267   1.406394   2.425480
    13  C    3.409190   3.421652   2.155409   2.449218   1.405945
    14  H    2.677670   4.311077   2.487292   3.423561   2.159628
    15  C    4.883079   3.426968   3.891049   2.451469   2.814065
    16  C    3.537399   3.911115   3.418328   2.836398   2.443221
    17  H    5.367539   4.313540   4.966776   3.423028   3.889806
    18  H    2.465384   5.903734   4.815352   4.848657   4.103467
    19  C    2.816531   5.439840   4.708517   4.365123   3.846440
    20  H    3.756090   5.901540   5.530469   4.845968   4.585047
    21  N    2.284916   6.168292   5.303659   5.125927   4.537485
    22  H    3.166897   6.447166   5.890857   5.437858   5.061042
                   11         12         13         14         15
    11  I    0.000000
    12  C    2.135160   0.000000
    13  C    4.943504   2.808365   0.000000
    14  H    6.018634   3.883502   1.075141   0.000000
    15  C    3.081066   1.409168   2.441466   3.413252   0.000000
    16  C    4.414873   2.440321   1.414377   2.157360   1.411816
    17  H    3.137716   2.160487   3.417748   4.304418   1.075777
    18  H    6.398042   4.531084   2.737722   2.582009   3.347512
    19  C    5.614756   3.842260   2.554958   2.744934   2.548081
    20  H    5.506737   4.041574   3.423099   3.755788   2.644404
    21  N    6.378839   4.665689   3.272383   3.259917   3.448368
    22  H    6.272469   4.801884   3.932210   4.086822   3.589502
                   16         17         18         19         20
    16  C    0.000000
    17  H    2.161181   0.000000
    18  H    2.155085   3.641418   0.000000
    19  C    1.528757   2.744179   1.082118   0.000000
    20  H    2.157224   2.415262   1.756471   1.085807   0.000000
    21  N    2.509667   3.578862   2.072308   1.474749   2.080040
    22  H    3.003826   3.502598   2.936983   2.138086   2.366740
                   21         22
    21  N    0.000000
    22  H    0.997429   0.000000
 Stoichiometry    C9H10INO
 Framework group  C1[X(C9H10INO)]
 Deg. of freedom    60
 Full point group                 C1      NOp   1
 Largest Abelian subgroup         C1      NOp   1
 Largest concise Abelian subgroup C1      NOp   1
                         Standard orientation:                         
 ---------------------------------------------------------------------
 Center     Atomic      Atomic             Coordinates (Angstroms)
 Number     Number       Type             X           Y           Z
 ---------------------------------------------------------------------
      1          1           0        6.228909   -1.248547   -0.890207
      2          6           0        5.220639   -1.111095   -1.272976
      3          1           0        4.813490   -2.075875   -1.565994
      4          1           0        5.282022   -0.466457   -2.146190
      5          6           0        4.381322   -0.417437   -0.206562
      6          8           0        4.700662    0.699869    0.244834
      7          1           0       -1.749733    2.347445   -0.828413
      8          1           0        0.506632    3.363730   -0.638626
      9          6           0       -0.936797    1.780285   -0.413092
     10          6           0        0.348703    2.352498   -0.303399
     11         53           0       -3.068226   -0.426341   -0.113304
     12          6           0       -1.131819    0.461124    0.033814
     13          6           0        1.417945    1.619831    0.241212
     14          1           0        2.395543    2.060253    0.320324
     15          6           0       -0.070038   -0.285492    0.582394
     16          6           0        1.214351    0.291882    0.683436
     17          1           0       -0.237197   -1.290535    0.927708
     18          1           0        2.978741    0.108787    1.907281
     19          6           0        2.374182   -0.517221    1.264163
     20          1           0        1.991897   -1.343351    1.856062
     21          7           0        3.267531   -1.079701    0.234392
     22          1           0        3.016713   -1.946694   -0.190200
 ---------------------------------------------------------------------
 Rotational constants (GHZ):      1.6086917      0.1974823      0.1853050

 Test job not archived.
 1\1\GINC-LAC-349\FOpt\RHF\CEP-31G\C9H10I1N1O1\SONGLIN3\29-Nov-2017\0\\
 #HF/CEP-31G SCF=tight Test Pop=MK iop(6/33=2) iop(6/42=6) opt #Pop=Rea
 dRadii iop(6/50=1)\\remark line goes here\\0,1\H,6.228909,-1.248547,-0
 .890207\C,5.220639,-1.111095,-1.272976\H,4.81349,-2.075875,-1.565994\H
 ,5.282022,-0.466457,-2.14619\C,4.381322,-0.417437,-0.206562\O,4.700662
 ,0.699869,0.244834\H,-1.749733,2.347445,-0.828413\H,0.506632,3.36373,-
 0.638626\C,-0.936797,1.780285,-0.413092\C,0.348703,2.352498,-0.303399\
 I,-3.068226,-0.426341,-0.113304\C,-1.131819,0.461124,0.033814\C,1.4179
 45,1.619831,0.241212\H,2.395543,2.060253,0.320324\C,-0.070038,-0.28549
 2,0.582394\C,1.214351,0.291882,0.683436\H,-0.237197,-1.290535,0.927708
 \H,2.978741,0.108787,1.907281\C,2.374182,-0.517221,1.264163\H,1.991897
 ,-1.343351,1.856062\N,3.267531,-1.079701,0.234392\H,3.016713,-1.946694
 ,-0.1902\\Version=ES64L-G09RevD.01\State=1-A\HF=-91.5986296\RMSD=3.103
 e-09\RMSF=8.254e-07\Dipole=0.1866319,-1.189153,-0.4530978\Quadrupole=-
 7.3245372,6.4378334,0.8867039,-12.4570763,-4.4894519,-1.7935473\PG=C01
  [X(C9H10I1N1O1)]\\@


 CHEMISTRY BEGAN BY SAYING IT WOULD CHANGE THE BASER
 METALS INTO GOLD.  BY NOT DOING THAT IT HAS DONE MUCH
 GREATER THINGS.  --  RALPH WALDO EMERSON
 Job cpu time:       0 days  0 hours  0 minutes 12.1 seconds.
 File lengths (MBytes):  RWF=    132 Int=      0 D2E=      0 Chk=      3 Scr=      2
 Normal termination of Gaussian 09 at Wed Nov 29 18:41:42 2017.
