 Entering Gaussian System, Link 0=g09
 Initial command:
 /opt/software/Gaussian/g09/l1.exe "/mnt/ls15/scratch/users/songlin3/Gau-25255.inp" -scrdir="/mnt/ls15/scratch/users/songlin3/"
 Entering Link 1 = /opt/software/Gaussian/g09/l1.exe PID=     25256.
  
 Copyright (c) 1988,1990,1992,1993,1995,1998,2003,2009,2013,
            Gaussian, Inc.  All Rights Reserved.
  
 This is part of the Gaussian(R) 09 program.  It is based on
 the Gaussian(R) 03 system (copyright 2003, Gaussian, Inc.),
 the Gaussian(R) 98 system (copyright 1998, Gaussian, Inc.),
 the Gaussian(R) 94 system (copyright 1995, Gaussian, Inc.),
 the Gaussian 92(TM) system (copyright 1992, Gaussian, Inc.),
 the Gaussian 90(TM) system (copyright 1990, Gaussian, Inc.),
 the Gaussian 88(TM) system (copyright 1988, Gaussian, Inc.),
 the Gaussian 86(TM) system (copyright 1986, Carnegie Mellon
 University), and the Gaussian 82(TM) system (copyright 1983,
 Carnegie Mellon University). Gaussian is a federally registered
 trademark of Gaussian, Inc.
  
 This software contains proprietary and confidential information,
 including trade secrets, belonging to Gaussian, Inc.
  
 This software is provided under written license and may be
 used, copied, transmitted, or stored only in accord with that
 written license.
  
 The following legend is applicable only to US Government
 contracts under FAR:
  
                    RESTRICTED RIGHTS LEGEND
  
 Use, reproduction and disclosure by the US Government is
 subject to restrictions as set forth in subparagraphs (a)
 and (c) of the Commercial Computer Software - Restricted
 Rights clause in FAR 52.227-19.
  
 Gaussian, Inc.
 340 Quinnipiac St., Bldg. 40, Wallingford CT 06492
  
  
 ---------------------------------------------------------------
 Warning -- This program may not be used in any manner that
 competes with the business of Gaussian, Inc. or will provide
 assistance to any competitor of Gaussian, Inc.  The licensee
 of this program is prohibited from giving any competitor of
 Gaussian, Inc. access to this program.  By using this program,
 the user acknowledges that Gaussian, Inc. is engaged in the
 business of creating and licensing software in the field of
 computational chemistry and represents and warrants to the
 licensee that it is not a competitor of Gaussian, Inc. and that
 it will not use this program in any manner prohibited above.
 ---------------------------------------------------------------
  

 Cite this work as:
 Gaussian 09, Revision D.01,
 M. J. Frisch, G. W. Trucks, H. B. Schlegel, G. E. Scuseria, 
 M. A. Robb, J. R. Cheeseman, G. Scalmani, V. Barone, B. Mennucci, 
 G. A. Petersson, H. Nakatsuji, M. Caricato, X. Li, H. P. Hratchian, 
 A. F. Izmaylov, J. Bloino, G. Zheng, J. L. Sonnenberg, M. Hada, 
 M. Ehara, K. Toyota, R. Fukuda, J. Hasegawa, M. Ishida, T. Nakajima, 
 Y. Honda, O. Kitao, H. Nakai, T. Vreven, J. A. Montgomery, Jr., 
 J. E. Peralta, F. Ogliaro, M. Bearpark, J. J. Heyd, E. Brothers, 
 K. N. Kudin, V. N. Staroverov, T. Keith, R. Kobayashi, J. Normand, 
 K. Raghavachari, A. Rendell, J. C. Burant, S. S. Iyengar, J. Tomasi, 
 M. Cossi, N. Rega, J. M. Millam, M. Klene, J. E. Knox, J. B. Cross, 
 V. Bakken, C. Adamo, J. Jaramillo, R. Gomperts, R. E. Stratmann, 
 O. Yazyev, A. J. Austin, R. Cammi, C. Pomelli, J. W. Ochterski, 
 R. L. Martin, K. Morokuma, V. G. Zakrzewski, G. A. Voth, 
 P. Salvador, J. J. Dannenberg, S. Dapprich, A. D. Daniels, 
 O. Farkas, J. B. Foresman, J. V. Ortiz, J. Cioslowski, 
 and D. J. Fox, Gaussian, Inc., Wallingford CT, 2013.
 
 ******************************************
 Gaussian 09:  ES64L-G09RevD.01 24-Apr-2013
                29-Nov-2017 
 ******************************************
 %RWF=myrwf
 %NoSave
 %chk=opt.chk
 %NprocShared=4
 Will use up to    4 processors via shared memory.
 %Mem=16GB
 ----------------------------------------------------------------------
 #HF/CEP-31G SCF=tight Test Pop=MK iop(6/33=2) iop(6/42=6) opt #Pop=Rea
 dRadii
 ----------------------------------------------------------------------
 1/18=20,19=15,38=1/1,3;
 2/9=110,12=2,17=6,18=5,40=1/2;
 3/5=9,6=1,11=9,16=1,25=1,30=1,71=1/1,2,3;
 4//1;
 5/5=2,32=2,38=5/2;
 6/7=2,8=2,9=2,10=2,15=8,20=101,28=1,33=2,42=6/1,2;
 7//1,2,3,16;
 1/18=20,19=15/3(2);
 2/9=110/2;
 99//99;
 2/9=110/2;
 3/5=9,6=1,11=9,16=1,25=1,30=1,71=1/1,2,3;
 4/5=5,16=3,69=1/1;
 5/5=2,32=2,38=5/2;
 7//1,2,3,16;
 1/18=20,19=15/3(-5);
 2/9=110/2;
 6/7=2,8=2,9=2,10=2,15=8,19=2,20=101,28=1,33=2,42=6/1,2;
 99/9=1/99;
 ---------------------
 remark line goes here
 ---------------------
 Symbolic Z-matrix:
 Charge =  0 Multiplicity = 1
 H                     18.493   -12.921    20.769 
 C                     18.075   -11.948    21.028 
 H                     18.731   -11.16     20.658 
 H                     17.986   -11.866    22.111 
 C                     16.673   -11.759    20.401 
 O                     16.178   -12.653    19.713 
 H                     10.849   -10.682    23.982 
 H                     11.335   -12.594    22.47 
 C                     11.622   -10.592    23.231 
 C                     11.898   -11.676    22.373 
 I                     12.063   -7.831     24.471 
 C                     12.374   -9.406     23.128 
 C                     12.911   -11.567    21.398 
 H                     13.124   -12.403    20.746 
 C                     13.377   -9.295     22.145 
 C                     13.647   -10.37     21.273 
 H                     13.955   -8.387     22.079 
 H                     14.421   -10.771    19.304 
 C                     14.715   -10.225    20.203 
 H                     14.752   -9.172     19.932 
 N                     16.051   -10.6      20.644 
 H                     16.567   -9.898     21.174 
 

 GradGradGradGradGradGradGradGradGradGradGradGradGradGradGradGradGradGrad
 Berny optimization.
 Initialization pass.
                           ----------------------------
                           !    Initial Parameters    !
                           ! (Angstroms and Degrees)  !
 --------------------------                            --------------------------
 ! Name  Definition              Value          Derivative Info.                !
 --------------------------------------------------------------------------------
 ! R1    R(1,2)                  1.0902         estimate D2E/DX2                !
 ! R2    R(2,3)                  1.09           estimate D2E/DX2                !
 ! R3    R(2,4)                  1.0897         estimate D2E/DX2                !
 ! R4    R(2,5)                  1.5474         estimate D2E/DX2                !
 ! R5    R(5,6)                  1.2319         estimate D2E/DX2                !
 ! R6    R(5,21)                 1.3376         estimate D2E/DX2                !
 ! R7    R(7,9)                  1.0815         estimate D2E/DX2                !
 ! R8    R(8,10)                 1.0813         estimate D2E/DX2                !
 ! R9    R(9,10)                 1.4098         estimate D2E/DX2                !
 ! R10   R(9,12)                 1.4081         estimate D2E/DX2                !
 ! R11   R(10,13)                1.4102         estimate D2E/DX2                !
 ! R12   R(11,12)                2.0931         estimate D2E/DX2                !
 ! R13   R(12,15)                1.4088         estimate D2E/DX2                !
 ! R14   R(13,14)                1.0814         estimate D2E/DX2                !
 ! R15   R(13,16)                1.4107         estimate D2E/DX2                !
 ! R16   R(15,16)                1.4103         estimate D2E/DX2                !
 ! R17   R(15,17)                1.0784         estimate D2E/DX2                !
 ! R18   R(16,19)                1.5187         estimate D2E/DX2                !
 ! R19   R(18,19)                1.0921         estimate D2E/DX2                !
 ! R20   R(19,20)                1.0879         estimate D2E/DX2                !
 ! R21   R(19,21)                1.456          estimate D2E/DX2                !
 ! R22   R(21,22)                1.0198         estimate D2E/DX2                !
 ! A1    A(1,2,3)              109.5002         estimate D2E/DX2                !
 ! A2    A(1,2,4)              109.5466         estimate D2E/DX2                !
 ! A3    A(1,2,5)              111.1085         estimate D2E/DX2                !
 ! A4    A(3,2,4)              109.3958         estimate D2E/DX2                !
 ! A5    A(3,2,5)              108.6284         estimate D2E/DX2                !
 ! A6    A(4,2,5)              108.6328         estimate D2E/DX2                !
 ! A7    A(2,5,6)              120.1135         estimate D2E/DX2                !
 ! A8    A(2,5,21)             116.9705         estimate D2E/DX2                !
 ! A9    A(6,5,21)             122.9159         estimate D2E/DX2                !
 ! A10   A(7,9,10)             119.9058         estimate D2E/DX2                !
 ! A11   A(7,9,12)             120.1726         estimate D2E/DX2                !
 ! A12   A(10,9,12)            119.9058         estimate D2E/DX2                !
 ! A13   A(8,10,9)             119.7551         estimate D2E/DX2                !
 ! A14   A(8,10,13)            120.1113         estimate D2E/DX2                !
 ! A15   A(9,10,13)            120.132          estimate D2E/DX2                !
 ! A16   A(9,12,11)            120.498          estimate D2E/DX2                !
 ! A17   A(9,12,15)            119.844          estimate D2E/DX2                !
 ! A18   A(11,12,15)           119.6181         estimate D2E/DX2                !
 ! A19   A(10,13,14)           119.9075         estimate D2E/DX2                !
 ! A20   A(10,13,16)           120.107          estimate D2E/DX2                !
 ! A21   A(14,13,16)           119.9855         estimate D2E/DX2                !
 ! A22   A(12,15,16)           120.5101         estimate D2E/DX2                !
 ! A23   A(12,15,17)           119.3838         estimate D2E/DX2                !
 ! A24   A(16,15,17)           120.0903         estimate D2E/DX2                !
 ! A25   A(13,16,15)           119.4791         estimate D2E/DX2                !
 ! A26   A(13,16,19)           120.6851         estimate D2E/DX2                !
 ! A27   A(15,16,19)           119.8334         estimate D2E/DX2                !
 ! A28   A(16,19,18)           110.0542         estimate D2E/DX2                !
 ! A29   A(16,19,20)           106.9669         estimate D2E/DX2                !
 ! A30   A(16,19,21)           114.0335         estimate D2E/DX2                !
 ! A31   A(18,19,20)           106.7379         estimate D2E/DX2                !
 ! A32   A(18,19,21)           111.5656         estimate D2E/DX2                !
 ! A33   A(20,19,21)           107.0687         estimate D2E/DX2                !
 ! A34   A(5,21,19)            126.4992         estimate D2E/DX2                !
 ! A35   A(5,21,22)            117.1027         estimate D2E/DX2                !
 ! A36   A(19,21,22)           116.3849         estimate D2E/DX2                !
 ! D1    D(1,2,5,6)              0.0331         estimate D2E/DX2                !
 ! D2    D(1,2,5,21)          -179.9264         estimate D2E/DX2                !
 ! D3    D(3,2,5,6)            120.546          estimate D2E/DX2                !
 ! D4    D(3,2,5,21)           -59.4135         estimate D2E/DX2                !
 ! D5    D(4,2,5,6)           -120.5401         estimate D2E/DX2                !
 ! D6    D(4,2,5,21)            59.5004         estimate D2E/DX2                !
 ! D7    D(2,5,21,19)         -177.5189         estimate D2E/DX2                !
 ! D8    D(2,5,21,22)            3.8591         estimate D2E/DX2                !
 ! D9    D(6,5,21,19)            2.5228         estimate D2E/DX2                !
 ! D10   D(6,5,21,22)         -176.0992         estimate D2E/DX2                !
 ! D11   D(7,9,10,8)            -0.021          estimate D2E/DX2                !
 ! D12   D(7,9,10,13)         -179.5739         estimate D2E/DX2                !
 ! D13   D(12,9,10,8)          178.5358         estimate D2E/DX2                !
 ! D14   D(12,9,10,13)          -1.017          estimate D2E/DX2                !
 ! D15   D(7,9,12,11)            2.4654         estimate D2E/DX2                !
 ! D16   D(7,9,12,15)         -179.8414         estimate D2E/DX2                !
 ! D17   D(10,9,12,11)        -176.0875         estimate D2E/DX2                !
 ! D18   D(10,9,12,15)           1.6057         estimate D2E/DX2                !
 ! D19   D(8,10,13,14)           0.0536         estimate D2E/DX2                !
 ! D20   D(8,10,13,16)        -179.8947         estimate D2E/DX2                !
 ! D21   D(9,10,13,14)         179.6049         estimate D2E/DX2                !
 ! D22   D(9,10,13,16)          -0.3434         estimate D2E/DX2                !
 ! D23   D(9,12,15,16)          -0.8437         estimate D2E/DX2                !
 ! D24   D(9,12,15,17)        -179.4032         estimate D2E/DX2                !
 ! D25   D(11,12,15,16)        176.87           estimate D2E/DX2                !
 ! D26   D(11,12,15,17)         -1.6895         estimate D2E/DX2                !
 ! D27   D(10,13,16,15)          1.1029         estimate D2E/DX2                !
 ! D28   D(10,13,16,19)       -178.3325         estimate D2E/DX2                !
 ! D29   D(14,13,16,15)       -178.8454         estimate D2E/DX2                !
 ! D30   D(14,13,16,19)          1.7192         estimate D2E/DX2                !
 ! D31   D(12,15,16,13)         -0.5112         estimate D2E/DX2                !
 ! D32   D(12,15,16,19)        178.9291         estimate D2E/DX2                !
 ! D33   D(17,15,16,13)        178.0381         estimate D2E/DX2                !
 ! D34   D(17,15,16,19)         -2.5216         estimate D2E/DX2                !
 ! D35   D(13,16,19,18)         34.3825         estimate D2E/DX2                !
 ! D36   D(13,16,19,20)        149.9712         estimate D2E/DX2                !
 ! D37   D(13,16,19,21)        -91.8608         estimate D2E/DX2                !
 ! D38   D(15,16,19,18)       -145.0509         estimate D2E/DX2                !
 ! D39   D(15,16,19,20)        -29.4622         estimate D2E/DX2                !
 ! D40   D(15,16,19,21)         88.7057         estimate D2E/DX2                !
 ! D41   D(16,19,21,5)         100.2004         estimate D2E/DX2                !
 ! D42   D(16,19,21,22)        -81.1689         estimate D2E/DX2                !
 ! D43   D(18,19,21,5)         -25.2478         estimate D2E/DX2                !
 ! D44   D(18,19,21,22)        153.3829         estimate D2E/DX2                !
 ! D45   D(20,19,21,5)        -141.6899         estimate D2E/DX2                !
 ! D46   D(20,19,21,22)         36.9408         estimate D2E/DX2                !
 --------------------------------------------------------------------------------
 Trust Radius=3.00D-01 FncErr=1.00D-07 GrdErr=1.00D-07
 Number of steps in this run=    114 maximum allowed number of steps=    132.
 GradGradGradGradGradGradGradGradGradGradGradGradGradGradGradGradGradGrad

                          Input orientation:                          
 ---------------------------------------------------------------------
 Center     Atomic      Atomic             Coordinates (Angstroms)
 Number     Number       Type             X           Y           Z
 ---------------------------------------------------------------------
      1          1           0       18.493000  -12.921000   20.769000
      2          6           0       18.075000  -11.948000   21.028000
      3          1           0       18.731000  -11.160000   20.658000
      4          1           0       17.986000  -11.866000   22.111000
      5          6           0       16.673000  -11.759000   20.401000
      6          8           0       16.178000  -12.653000   19.713000
      7          1           0       10.849000  -10.682000   23.982000
      8          1           0       11.335000  -12.594000   22.470000
      9          6           0       11.622000  -10.592000   23.231000
     10          6           0       11.898000  -11.676000   22.373000
     11         53           0       12.063000   -7.831000   24.471000
     12          6           0       12.374000   -9.406000   23.128000
     13          6           0       12.911000  -11.567000   21.398000
     14          1           0       13.124000  -12.403000   20.746000
     15          6           0       13.377000   -9.295000   22.145000
     16          6           0       13.647000  -10.370000   21.273000
     17          1           0       13.955000   -8.387000   22.079000
     18          1           0       14.421000  -10.771000   19.304000
     19          6           0       14.715000  -10.225000   20.203000
     20          1           0       14.752000   -9.172000   19.932000
     21          7           0       16.051000  -10.600000   20.644000
     22          1           0       16.567000   -9.898000   21.174000
 ---------------------------------------------------------------------
                    Distance matrix (angstroms):
                    1          2          3          4          5
     1  H    0.000000
     2  C    1.090199   0.000000
     3  H    1.780474   1.090037   0.000000
     4  H    1.780741   1.089740   1.778952   0.000000
     5  C    2.190449   1.547402   2.158753   2.158592   0.000000
     6  O    2.558551   2.413474   3.104816   3.104615   1.231911
     7  H    8.588785   7.908473   8.567577   7.472568   6.921161
     8  H    7.364597   6.922736   7.748582   6.700348   5.785519
     9  C    7.661353   6.952205   7.581612   6.586196   5.906216
    10  C    6.900498   6.327585   7.063807   6.096596   5.166846
    11  I    8.997655   8.059037   8.371585   7.545380   7.296998
    12  C    7.440582   6.585831   7.041936   6.211315   5.608435
    13  C    5.778207   5.191238   5.880956   5.133556   3.896603
    14  H    5.393979   4.979854   5.743800   5.078448   3.623419
    15  C    6.419868   5.509746   5.861289   5.277696   4.469502
    16  C    5.499576   4.707153   5.181639   4.665531   3.441857
    17  H    6.547267   5.546145   5.702539   5.324794   4.644738
    18  H    4.832174   4.208233   4.534395   4.667708   2.692779
    19  C    4.675688   3.865094   4.148434   4.127080   2.495220
    20  H    5.361963   4.466511   4.506846   4.739666   3.256190
    21  N    3.371354   2.461937   2.737918   2.738443   1.337615
    22  H    3.607219   2.549094   2.557693   2.600876   2.017941
                    6          7          8          9         10
     6  O    0.000000
     7  H    7.106859   0.000000
     8  H    5.573076   2.485575   0.000000
     9  C    6.114015   1.081494   2.160901   0.000000
    10  C    5.133082   2.162711   1.081250   1.409750   0.000000
    11  I    7.926126   3.137056   5.217294   3.058627   4.383247
    12  C    6.056042   2.164051   3.416991   1.408087   2.439160
    13  C    3.833003   3.422298   2.165107   2.443775   1.410204
    14  H    3.233652   4.313834   2.491822   3.422127   2.163038
    15  C    5.003638   3.418936   3.893429   2.437546   2.812221
    16  C    3.748553   3.907023   3.424081   2.825539   2.444307
    17  H    5.360825   4.305307   4.971532   3.410574   3.890399
    18  H    2.606963   5.886492   4.782288   4.825740   4.074717
    19  C    2.876743   5.425463   4.709124   4.343975   3.840546
    20  H    3.768129   5.823745   5.461448   4.764105   4.513736
    21  N    2.257808   6.181405   5.436080   5.129198   4.625433
    22  H    3.142589   6.418337   6.026762   5.400547   5.137942
                   11         12         13         14         15
    11  I    0.000000
    12  C    2.093083   0.000000
    13  C    4.911225   2.819785   0.000000
    14  H    5.992039   3.901081   1.081374   0.000000
    15  C    3.046337   1.408765   2.436627   3.417729   0.000000
    16  C    4.379815   2.447621   1.410720   2.164335   1.410287
    17  H    3.100075   2.153677   3.415567   4.312274   1.078380
    18  H    6.395440   4.547132   2.701583   2.534758   3.367461
    19  C    5.565983   3.834927   2.546253   2.751329   2.535056
    20  H    5.443484   3.990496   3.357747   3.708415   2.608280
    21  N    6.182025   4.595239   3.370935   3.439265   3.332612
    22  H    5.952202   4.652035   4.025180   4.279306   3.388591
                   16         17         18         19         20
    16  C    0.000000
    17  H    2.162588   0.000000
    18  H    2.153332   3.687985   0.000000
    19  C    1.518733   2.734085   1.092132   0.000000
    20  H    2.110571   2.420959   1.749499   1.087943   0.000000
    21  N    2.495547   3.368948   2.117012   1.456023   2.057554
    22  H    2.959558   3.150348   2.977305   2.116524   2.316002
                   21         22
    21  N    0.000000
    22  H    1.019784   0.000000
 Stoichiometry    C9H10INO
 Framework group  C1[X(C9H10INO)]
 Deg. of freedom    60
 Full point group                 C1      NOp   1
 Largest Abelian subgroup         C1      NOp   1
 Largest concise Abelian subgroup C1      NOp   1
                         Standard orientation:                         
 ---------------------------------------------------------------------
 Center     Atomic      Atomic             Coordinates (Angstroms)
 Number     Number       Type             X           Y           Z
 ---------------------------------------------------------------------
      1          1           0        5.876768   -1.226798   -1.579718
      2          6           0        4.950785   -1.596230   -1.138573
      3          1           0        5.155307   -2.503212   -0.569596
      4          1           0        4.233860   -1.818559   -1.928587
      5          6           0        4.328679   -0.545916   -0.187638
      6          8           0        4.884718    0.540154   -0.017699
      7          1           0       -1.937883    2.284912   -0.974452
      8          1           0        0.243359    3.476610   -0.963316
      9          6           0       -1.072473    1.820364   -0.521804
     10          6           0        0.164908    2.495819   -0.514990
     11         53           0       -2.967447   -0.538594   -0.075045
     12          6           0       -1.171099    0.530204    0.033595
     13          6           0        1.298524    1.890757    0.065948
     14          1           0        2.247370    2.409461    0.063481
     15          6           0       -0.040254   -0.067016    0.624473
     16          6           0        1.196573    0.610163    0.648887
     17          1           0       -0.121670   -1.059233    1.038937
     18          1           0        3.017633    0.723528    1.792445
     19          6           0        2.399770   -0.037815    1.311451
     20          1           0        2.019002   -0.678815    2.103759
     21          7           0        3.185203   -0.880138    0.420616
     22          1           0        2.834279   -1.824679    0.263601
 ---------------------------------------------------------------------
 Rotational constants (GHZ):      1.3925629      0.2057867      0.1891325
 Standard basis: CEP-31G (6D, 10F)
 There are   116 symmetry adapted cartesian basis functions of A   symmetry.
 There are   116 symmetry adapted basis functions of A   symmetry.
   116 basis functions,   236 primitive gaussians,   116 cartesian basis functions
    32 alpha electrons       32 beta electrons
       nuclear repulsion energy       331.1296100193 Hartrees.
 NAtoms=   22 NActive=   22 NUniq=   22 SFac= 1.00D+00 NAtFMM=   60 NAOKFM=F Big=F
 Integral buffers will be    131072 words long.
 Raffenetti 1 integral format.
 Two-electron integral symmetry is turned on.
 One-electron integrals computed using PRISM.
   1 Symmetry operations used in ECPInt.
 ECPInt:  NShTT=     990 NPrTT=    4074 LenC2=     985 LenP2D=    3307.
 LDataN:  DoStor=T MaxTD1= 4 Len=   56
 NBasis=   116 RedAO= T EigKep=  2.65D-04  NBF=   116
 NBsUse=   116 1.00D-06 EigRej= -1.00D+00 NBFU=   116
 ExpMin= 7.80D-02 ExpMax= 1.92D+01 ExpMxC= 1.92D+01 IAcc=2 IRadAn=         4 AccDes= 0.00D+00
 Harris functional with IExCor=  205 and IRadAn=       4 diagonalized for initial guess.
 HarFok:  IExCor=  205 AccDes= 0.00D+00 IRadAn=         4 IDoV= 1 UseB2=F ITyADJ=14
 ICtDFT=  3500011 ScaDFX=  1.000000  1.000000  1.000000  1.000000
 Defaulting to unpruned grid for atomic number  53.
 Defaulting to unpruned grid for atomic number  53.
 Defaulting to unpruned grid for atomic number  53.
 Defaulting to unpruned grid for atomic number  53.
 FoFCou: FMM=F IPFlag=           0 FMFlag=      100000 FMFlg1=           0
         NFxFlg=           0 DoJE=T BraDBF=F KetDBF=T FulRan=T
         wScrn=  0.000000 ICntrl=     500 IOpCl=  0 I1Cent=   200000004 NGrid=           0
         NMat0=    1 NMatS0=      1 NMatT0=    0 NMatD0=    1 NMtDS0=    0 NMtDT0=    0
 Petite list used in FoFCou.
 Keep R1 ints in memory in canonical form, NReq=23949951.
 Requested convergence on RMS density matrix=1.00D-08 within 128 cycles.
 Requested convergence on MAX density matrix=1.00D-06.
 Requested convergence on             energy=1.00D-06.
 No special actions if energy rises.
 SCF Done:  E(RHF) =  -91.5916923540     A.U. after   15 cycles
            NFock= 15  Conv=0.93D-08     -V/T= 2.3901

 **********************************************************************

            Population analysis using the SCF density.

 **********************************************************************

 Orbital symmetries:
 BldTbl:  Degeneracy threshold= 1.00D-02
       Occupied  (A) (A) (A) (A) (A) (A) (A) (A) (A) (A) (A) (A)
                 (A) (A) (A) (A) (A) (A) (A) (A) (A) (A) (A) (A)
                 (A) (A) (A) (A) (A) (A) (A) (A)
       Virtual   (A) (A) (A) (A) (A) (A) (A) (A) (A) (A) (A) (A)
                 (A) (A) (A) (A) (A) (A) (A) (A) (A) (A) (A) (A)
                 (A) (A) (A) (A) (A) (A) (A) (A) (A) (A) (A) (A)
                 (A) (A) (A) (A) (A) (A) (A) (A) (A) (A) (A) (A)
                 (A) (A) (A) (A) (A) (A) (A) (A) (A) (A) (A) (A)
                 (A) (A) (A) (A) (A) (A) (A) (A) (A) (A) (A) (A)
                 (A) (A) (A) (A) (A) (A) (A) (A) (A) (A) (A) (A)
 The electronic state is 1-A.
 Alpha  occ. eigenvalues --   -1.40880  -1.26212  -1.18114  -1.07679  -1.04909
 Alpha  occ. eigenvalues --   -1.01853  -0.95357  -0.91278  -0.84581  -0.80957
 Alpha  occ. eigenvalues --   -0.79713  -0.71092  -0.69975  -0.65948  -0.65558
 Alpha  occ. eigenvalues --   -0.64629  -0.62296  -0.59672  -0.57287  -0.56836
 Alpha  occ. eigenvalues --   -0.56325  -0.54815  -0.53212  -0.52071  -0.50212
 Alpha  occ. eigenvalues --   -0.46238  -0.41870  -0.40430  -0.39327  -0.37691
 Alpha  occ. eigenvalues --   -0.34862  -0.32650
 Alpha virt. eigenvalues --    0.09319   0.10361   0.10808   0.18710   0.21077
 Alpha virt. eigenvalues --    0.24351   0.25994   0.26679   0.27926   0.28262
 Alpha virt. eigenvalues --    0.29282   0.29715   0.30401   0.31670   0.33469
 Alpha virt. eigenvalues --    0.34321   0.34854   0.35351   0.36255   0.37011
 Alpha virt. eigenvalues --    0.38812   0.39295   0.39620   0.40696   0.43190
 Alpha virt. eigenvalues --    0.43520   0.45219   0.45973   0.46652   0.47277
 Alpha virt. eigenvalues --    0.48385   0.50027   0.50635   0.52538   0.53433
 Alpha virt. eigenvalues --    0.53569   0.55844   0.57917   0.58869   0.60026
 Alpha virt. eigenvalues --    0.62907   0.64667   0.67583   0.69470   0.70482
 Alpha virt. eigenvalues --    0.72179   0.73923   0.76543   0.79183   0.82239
 Alpha virt. eigenvalues --    0.86050   0.86791   0.89733   0.90842   0.92138
 Alpha virt. eigenvalues --    0.92765   0.98414   1.00367   1.03151   1.06363
 Alpha virt. eigenvalues --    1.10575   1.18944   1.27789   1.38582   1.40215
 Alpha virt. eigenvalues --    1.43279   1.44809   1.46344   1.49352   1.50342
 Alpha virt. eigenvalues --    1.53787   1.58419   2.04979   2.35302   2.92541
 Alpha virt. eigenvalues --    3.05174   3.49245   3.71835   4.23731   4.59158
 Alpha virt. eigenvalues --    5.07749   5.27242   5.81422   8.55464
          Condensed to atoms (all electrons):
               1          2          3          4          5          6
     1  H    0.468312   0.388382  -0.010068  -0.009841  -0.018990   0.005141
     2  C    0.388382   3.173125   0.343663   0.345625   0.250086  -0.091012
     3  H   -0.010068   0.343663   0.569634  -0.016834  -0.000874   0.001924
     4  H   -0.009841   0.345625  -0.016834   0.561076  -0.000306   0.001943
     5  C   -0.018990   0.250086  -0.000874  -0.000306   3.089488   0.556830
     6  O    0.005141  -0.091012   0.001924   0.001943   0.556830   5.944158
     7  H    0.000000   0.000000   0.000000   0.000000   0.000000   0.000000
     8  H    0.000000   0.000000   0.000000   0.000000   0.000007   0.000000
     9  C    0.000000  -0.000004   0.000000   0.000000  -0.000088  -0.000003
    10  C    0.000000   0.000073   0.000000  -0.000003   0.000044   0.000176
    11  I    0.000000   0.000000   0.000000   0.000000   0.000002   0.000000
    12  C    0.000000  -0.000008   0.000000   0.000001   0.000313  -0.000009
    13  C    0.000000   0.000178  -0.000008   0.000000   0.001906   0.000510
    14  H    0.000000   0.000031   0.000000   0.000000   0.000500   0.000343
    15  C    0.000000   0.000004   0.000007   0.000005   0.000152  -0.000292
    16  C    0.000014  -0.003567   0.000015   0.000206  -0.010740  -0.005969
    17  H    0.000000   0.000006   0.000000   0.000000   0.000006   0.000000
    18  H   -0.000003   0.000940  -0.000011  -0.000010  -0.003498   0.003015
    19  C   -0.000024   0.003890   0.000247   0.000159   0.008444   0.005413
    20  H    0.000001  -0.000110   0.000008   0.000001   0.007619  -0.000036
    21  N    0.003965  -0.145874   0.005613   0.005406   0.248136  -0.130001
    22  H    0.000062   0.005274   0.000293  -0.000106  -0.028141   0.002760
               7          8          9         10         11         12
     1  H    0.000000   0.000000   0.000000   0.000000   0.000000   0.000000
     2  C    0.000000   0.000000  -0.000004   0.000073   0.000000  -0.000008
     3  H    0.000000   0.000000   0.000000   0.000000   0.000000   0.000000
     4  H    0.000000   0.000000   0.000000  -0.000003   0.000000   0.000001
     5  C    0.000000   0.000007  -0.000088   0.000044   0.000002   0.000313
     6  O    0.000000   0.000000  -0.000003   0.000176   0.000000  -0.000009
     7  H    0.463538  -0.002017   0.310153  -0.017503   0.003291  -0.030639
     8  H   -0.002017   0.464316  -0.029828   0.317466  -0.000164   0.006231
     9  C    0.310153  -0.029828   3.047169   0.554711  -0.085912   0.452785
    10  C   -0.017503   0.317466   0.554711   3.054042   0.002031  -0.015621
    11  I    0.003291  -0.000164  -0.085912   0.002031   6.770336   0.188135
    12  C   -0.030639   0.006231   0.452785  -0.015621   0.188135   3.839834
    13  C    0.006057  -0.019083  -0.040584   0.423208   0.002757  -0.047479
    14  H   -0.000046  -0.001453   0.004080  -0.030900   0.000010   0.000798
    15  C    0.005133   0.000925  -0.163191  -0.054015  -0.095687   0.253954
    16  C   -0.000301   0.004131   0.001712   0.072469   0.005374   0.100938
    17  H   -0.000060  -0.000002   0.001369   0.001533   0.002080  -0.024740
    18  H    0.000000  -0.000001  -0.000010   0.001415   0.000004  -0.000687
    19  C   -0.000036  -0.000249   0.002771   0.019171  -0.000758   0.023014
    20  H    0.000000   0.000001   0.000003  -0.000522   0.000022   0.003086
    21  N    0.000000   0.000001   0.000219   0.000227   0.000041  -0.000148
    22  H    0.000000   0.000000  -0.000005   0.000048   0.000002  -0.000210
              13         14         15         16         17         18
     1  H    0.000000   0.000000   0.000000   0.000014   0.000000  -0.000003
     2  C    0.000178   0.000031   0.000004  -0.003567   0.000006   0.000940
     3  H   -0.000008   0.000000   0.000007   0.000015   0.000000  -0.000011
     4  H    0.000000   0.000000   0.000005   0.000206   0.000000  -0.000010
     5  C    0.001906   0.000500   0.000152  -0.010740   0.000006  -0.003498
     6  O    0.000510   0.000343  -0.000292  -0.005969   0.000000   0.003015
     7  H    0.006057  -0.000046   0.005133  -0.000301  -0.000060   0.000000
     8  H   -0.019083  -0.001453   0.000925   0.004131  -0.000002  -0.000001
     9  C   -0.040584   0.004080  -0.163191   0.001712   0.001369  -0.000010
    10  C    0.423208  -0.030900  -0.054015   0.072469   0.001533   0.001415
    11  I    0.002757   0.000010  -0.095687   0.005374   0.002080   0.000004
    12  C   -0.047479   0.000798   0.253954   0.100938  -0.024740  -0.000687
    13  C    3.004847   0.302825  -0.065153   0.485476   0.002666  -0.005704
    14  H    0.302825   0.440906   0.005607  -0.020118  -0.000060   0.000176
    15  C   -0.065153   0.005607   3.359888   0.358697   0.294899   0.007304
    16  C    0.485476  -0.020118   0.358697   3.257175  -0.024008  -0.044690
    17  H    0.002666  -0.000060   0.294899  -0.024008   0.461311   0.000091
    18  H   -0.005704   0.000176   0.007304  -0.044690   0.000091   0.489670
    19  C   -0.016704  -0.004627   0.000992   0.020878  -0.002180   0.409309
    20  H    0.003920   0.000066   0.004588  -0.065891  -0.001020  -0.030934
    21  N    0.000430   0.000219   0.002149  -0.042502  -0.000332  -0.028305
    22  H   -0.000573  -0.000008   0.002582  -0.006134  -0.000059   0.002378
              19         20         21         22
     1  H   -0.000024   0.000001   0.003965   0.000062
     2  C    0.003890  -0.000110  -0.145874   0.005274
     3  H    0.000247   0.000008   0.005613   0.000293
     4  H    0.000159   0.000001   0.005406  -0.000106
     5  C    0.008444   0.007619   0.248136  -0.028141
     6  O    0.005413  -0.000036  -0.130001   0.002760
     7  H   -0.000036   0.000000   0.000000   0.000000
     8  H   -0.000249   0.000001   0.000001   0.000000
     9  C    0.002771   0.000003   0.000219  -0.000005
    10  C    0.019171  -0.000522   0.000227   0.000048
    11  I   -0.000758   0.000022   0.000041   0.000002
    12  C    0.023014   0.003086  -0.000148  -0.000210
    13  C   -0.016704   0.003920   0.000430  -0.000573
    14  H   -0.004627   0.000066   0.000219  -0.000008
    15  C    0.000992   0.004588   0.002149   0.002582
    16  C    0.020878  -0.065891  -0.042502  -0.006134
    17  H   -0.002180  -0.001020  -0.000332  -0.000059
    18  H    0.409309  -0.030934  -0.028305   0.002378
    19  C    3.307370   0.409837   0.084897  -0.001979
    20  H    0.409837   0.561464  -0.044673  -0.007042
    21  N    0.084897  -0.044673   5.065656   0.301621
    22  H   -0.001979  -0.007042   0.301621   0.364032
 Mulliken charges:
               1
     1  H    0.173049
     2  C   -0.270703
     3  H    0.106392
     4  H    0.112679
     5  C   -0.100896
     6  O   -0.294891
     7  H    0.262430
     8  H    0.259719
     9  C   -0.055348
    10  C   -0.328051
    11  I    0.208436
    12  C   -0.749549
    13  C   -0.039491
    14  H    0.301650
    15  C    0.081453
    16  C   -0.083165
    17  H    0.288501
    18  H    0.199550
    19  C   -0.269836
    20  H    0.159613
    21  N   -0.326747
    22  H    0.365205
 Sum of Mulliken charges =   0.00000
 Mulliken charges with hydrogens summed into heavy atoms:
               1
     2  C    0.121417
     5  C   -0.100896
     6  O   -0.294891
     9  C    0.207082
    10  C   -0.068332
    11  I    0.208436
    12  C   -0.749549
    13  C    0.262159
    15  C    0.369953
    16  C   -0.083165
    19  C    0.089327
    21  N    0.038459
 DipInt: DoE/N= T F RetVal/Mat= T F Init=T NMatP=  1 IDeriv=0 Min/MaxMlt=  0  4
 Entering OneElI...
 OneElI was handed  2147446910 working-precision words.
 Multipole integrals L=0 to 4 MinM= 0 MaxM= 0.
 Requested accuracy = 0.1000D-12
 ShPair: Thresh= 1.00D-13 NBox=     0 BxSize= 0.00D+00 RnKept= 1.70D+01
         NSMCal=                  990 NSMKep=                 960
 PrsmSu:  NPrtUS=   1 ThrOK=F IAlg=1 NPAlg=1 LenDen=           0.
 Prism:   IPart=     0 DynPar=F LinDyn=F Incr=           9.
 PRISM was handed  2147371832 working-precision words and   960 shell-pairs
 IPart=  0 NShTot=         960 NBatch=          29 AvBLen=        33.1
 PrSmSu:  NxtVal=             10.
 Electronic moments (au):
        -64.00000000       -182.23266357        -29.93377325         -3.83518348
      -2162.31872926       -463.89417644       -191.53029130        182.49252179
         30.74085266          3.08787649     -14106.31819455       -939.60600398
        -55.79338399      -1100.82568002       1906.52691849       1050.06720280
       -717.27557263         50.44371074        342.36515717       -482.08745975
    -152217.79346085      -9160.63807698      -1805.71494179      16668.57945619
      11645.32645793       2556.45141715        615.65008012        315.79412835
       -203.72030275     -12119.91996878      -7103.49986543      -1345.95081022
      -4110.30969392       1172.78656785       1332.77733739
 Electronic spatial extent (au):  <R**2>=           2817.7432
 DipInt: DoE/N= F T RetVal/Mat= T F Init=T NMatP=  1 IDeriv=0 Min/MaxMlt=  0  4
 Nuclear    moments (au):
         64.00000000        181.88968727         28.82704360          3.78610750
       2083.23694853        406.29409287        127.68773100       -194.72812914
        -31.03683176         -4.86751830      13670.58437842        887.91317409
         50.64472246       1027.44677110      -2040.63157662      -1080.02120451
        645.50812314        -74.27288868       -356.98974009        493.97139588
     138618.87712847       7063.54121967        938.85892627     -17318.00239080
     -11847.10918339      -2316.76577854       -708.13622294       -274.58302177
        213.28193013       9891.82585096       5042.92865965        820.32160717
       4179.92242501      -1143.39221272      -1252.91036332
 Total      moments (au):
          0.00000000         -0.34297629         -1.10672965         -0.04907598
        -79.08178073        -57.60008357        -63.84256030        -12.23560735
         -0.29597910         -1.77964181       -435.73381613        -51.69282989
         -5.14866153        -73.37890892       -134.10465813        -29.95400171
        -71.76744950        -23.82917794        -14.62458292         11.88393613
     -13598.91633238      -2097.09685731       -866.85601553       -649.42293461
       -201.78272547        239.68563862        -92.48614282         41.21110658
          9.56162738      -2228.09411782      -2060.57120579       -525.62920305
         69.61273108         29.39435513         79.86697406
 Traceless Quadrup. (au):
        -12.24030587          9.24139130          2.99891457        -12.23560735
         -0.29597910         -1.77964181
 Charge=              0.0000 electrons
 Dipole moment (field-independent basis, Debye):
    X=             -0.8718    Y=             -2.8130    Z=             -0.1247  Tot=              2.9476
 Quadrupole moment (field-independent basis, Debye-Ang):
   XX=           -106.3677   YY=            -77.4741   ZZ=            -85.8704
   XY=            -16.4573   XZ=             -0.3981   YZ=             -2.3937
 Traceless Quadrupole moment (field-independent basis, Debye-Ang):
   XX=            -16.4636   YY=             12.4300   ZZ=              4.0336
   XY=            -16.4573   XZ=             -0.3981   YZ=             -2.3937
 Octapole moment (field-independent basis, Debye-Ang**2):
  XXX=           -310.1385  YYY=            -36.7930  ZZZ=             -3.6646  XYY=            -52.2283
  XXY=            -95.4505  XXZ=            -21.3201  XZZ=            -51.0813  YZZ=            -16.9607
  YYZ=            -10.4092  XYZ=              8.4585
 Hexadecapole moment (field-independent basis, Debye-Ang**3):
 XXXX=          -5122.0036 YYYY=           -789.8672 ZZZZ=           -326.4995 XXXY=           -244.6038
 XXXZ=            -76.0010 YYYX=             90.2771 YYYZ=            -34.8347 ZZZX=             15.5221
 ZZZY=              3.6014 XXYY=           -839.2070 XXZZ=           -776.1099 YYZZ=           -197.9771
 XXYZ=             26.2195 YYXZ=             11.0713 ZZXY=             30.0817
 N-N= 3.311296100193D+02 E-N=-8.664405579393D+02  KE= 6.588853291654D+01
 Entering OneElI...
 OneElI was handed  2147453030 working-precision words.
 Calculate electrostatic properties
    NBasis =   116  MinDer = 0  MaxDer = 0
    NGrid  =    22  NMatD  =   1
 Requested accuracy = 0.1000D-12
 ShPair: Thresh= 1.00D-13 NBox=     0 BxSize= 0.00D+00 RnKept= 1.70D+01
         NSMCal=                  990 NSMKep=                 933
 PrsmSu:  NPrtUS=   4 ThrOK=T IAlg=1 NPAlg=1 LenDen=           0.
 Prism:   IPart=     0 DynPar=F LinDyn=F Incr=          51.
 PRISM was handed   536824059 working-precision words and   933 shell-pairs
 PRISM was handed   536824059 working-precision words and   933 shell-pairs
 PRISM was handed   536824059 working-precision words and   933 shell-pairs
 PRISM was handed   536824059 working-precision words and   933 shell-pairs
 IPart=  0 NShTot=        5346 NBatch=         243 AvBLen=        22.0
 IPart=  2 NShTot=        5060 NBatch=         230 AvBLen=        22.0
 IPart=  1 NShTot=        5258 NBatch=         239 AvBLen=        22.0
 IPart=  3 NShTot=        4862 NBatch=         221 AvBLen=        22.0
 PrSmSu:  NxtVal=            205.
 --------------------------------------------------------
       Center         ----      EFG at Nuclei      ----
                      3XX-RR        3YY-RR        3ZZ-RR
 --------------------------------------------------------
     1   Atom       -0.190223      0.107592      0.082631
     2   Atom        0.039697     -0.012081     -0.027615
     3   Atom        0.148936     -0.181176      0.032240
     4   Atom       -0.047626      0.146358     -0.098732
     5   Atom       -0.028251      0.173587     -0.145336
     6   Atom        0.512842     -0.823066      0.310224
     7   Atom       -0.158959      0.069364      0.089595
     8   Atom        0.162117     -0.252887      0.090770
     9   Atom        0.125874      0.012149     -0.138023
    10   Atom        0.080639      0.073764     -0.154403
    11   Atom       -0.055675      0.008750      0.046925
    12   Atom       -0.104840      0.084725      0.020116
    13   Atom        0.122190      0.042449     -0.164639
    14   Atom       -0.220425      0.046553      0.173872
    15   Atom        0.051813      0.064719     -0.116532
    16   Atom        0.077928      0.067892     -0.145819
    17   Atom        0.159807     -0.265279      0.105472
    18   Atom        0.006278     -0.074561      0.068283
    19   Atom        0.005339      0.054781     -0.060120
    20   Atom        0.106368     -0.008889     -0.097479
    21   Atom       -0.111240     -0.336187      0.447428
    22   Atom        0.116070     -0.320611      0.204541
 --------------------------------------------------------
                        XY            XZ            YZ
 --------------------------------------------------------
     1   Atom       -0.139239      0.170827      0.065124
     2   Atom        0.071658      0.030528     -0.066250
     3   Atom        0.082635     -0.043864      0.212558
     4   Atom       -0.064966     -0.233594     -0.079725
     5   Atom        0.079146     -0.220597      0.234347
     6   Atom       -0.731193     -1.178464      0.388572
     7   Atom        0.171244     -0.172909      0.099256
     8   Atom       -0.035031      0.011363      0.198568
     9   Atom        0.009069      0.084095     -0.093145
    10   Atom        0.021599      0.073205     -0.140040
    11   Atom       -0.061275     -0.007368     -0.003319
    12   Atom       -0.158470      0.043367     -0.103325
    13   Atom        0.054090      0.071329     -0.120324
    14   Atom       -0.214145     -0.004331      0.008404
    15   Atom        0.052321      0.043697     -0.101760
    16   Atom        0.028989      0.061244     -0.123365
    17   Atom       -0.034780      0.007654      0.191022
    18   Atom       -0.179912     -0.118202     -0.152148
    19   Atom        0.193658      0.119596     -0.117478
    20   Atom       -0.095377      0.130501      0.210423
    21   Atom       -0.250778      0.659846     -0.412056
    22   Atom       -0.203033      0.007091     -0.102146
 --------------------------------------------------------


 ---------------------------------------------------------------------------------
              Nuclear Quadrupole Coupling Constant in Principal Axis System
 ---------------------------------------------------------------------------------

       Atom             a.u.   MegaHertz   Gauss  10(-4) cm-1        Axes

              Baa    -0.0931   -15.539    -5.545    -5.183  0.8548  0.5159  0.0572
    11 I(127) Bbb     0.0453     7.559     2.697     2.522 -0.4475  0.7883 -0.4222
              Bcc     0.0478     7.980     2.848     2.662 -0.2629  0.3353  0.9047
 
              Baa    -0.5545     2.663     0.950     0.888  0.7313 -0.3084 -0.6084
    21 N(14)  Bbb    -0.4975     2.389     0.853     0.797  0.4431  0.8929  0.0800
              Bcc     1.0520    -5.053    -1.803    -1.685  0.5186 -0.3281  0.7896
 

 ---------------------------------------------------------------------------------

 No NMR shielding tensors so no spin-rotation constants.
 Leave Link  601 at Wed Nov 29 18:27:34 2017, MaxMem=  2147483648 cpu:         0.6
 FitSet:  NAtFit=    22 NAtPot=    22 NAtFrz=     0 MDM=    26 TotChg=   0.00000
 Merz-Kollman atomic radii used.
 Read replacement radii for each type of atom:
 Rad(53) =   1.990000000000D+00
 Atom Element Radius
    1     1    1.20
    2     6    1.50
    3     1    1.20
    4     1    1.20
    5     6    1.50
    6     8    1.40
    7     1    1.20
    8     1    1.20
    9     6    1.50
   10     6    1.50
   11    53    1.99
   12     6    1.50
   13     6    1.50
   14     1    1.20
   15     6    1.50
   16     6    1.50
   17     1    1.20
   18     1    1.20
   19     6    1.50
   20     1    1.20
   21     7    1.50
   22     1    1.20
 Generate VDW surfaces: Layer= 4 Dens= 6 Start= 1.400 Inc= 0.200

 **********************************************************************

            Electrostatic Properties Using The SCF Density

 **********************************************************************

       Atomic Center    1 is at   5.876768 -1.226798 -1.579718
       Atomic Center    2 is at   4.950785 -1.596230 -1.138573
       Atomic Center    3 is at   5.155307 -2.503212 -0.569596
       Atomic Center    4 is at   4.233860 -1.818559 -1.928587
       Atomic Center    5 is at   4.328679 -0.545916 -0.187638
       Atomic Center    6 is at   4.884718  0.540154 -0.017699
       Atomic Center    7 is at  -1.937883  2.284912 -0.974452
       Atomic Center    8 is at   0.243359  3.476610 -0.963316
       Atomic Center    9 is at  -1.072473  1.820364 -0.521804
       Atomic Center   10 is at   0.164908  2.495819 -0.514990
       Atomic Center   11 is at  -2.967447 -0.538594 -0.075045
       Atomic Center   12 is at  -1.171099  0.530204  0.033595
       Atomic Center   13 is at   1.298524  1.890757  0.065948
       Atomic Center   14 is at   2.247370  2.409461  0.063481
       Atomic Center   15 is at  -0.040254 -0.067016  0.624473
       Atomic Center   16 is at   1.196573  0.610163  0.648887
       Atomic Center   17 is at  -0.121670 -1.059233  1.038937
       Atomic Center   18 is at   3.017633  0.723528  1.792445
       Atomic Center   19 is at   2.399770 -0.037815  1.311451
       Atomic Center   20 is at   2.019002 -0.678815  2.103759
       Atomic Center   21 is at   3.185203 -0.880138  0.420616
       Atomic Center   22 is at   2.834279 -1.824679  0.263601
      ESP Fit Center   23 is at   7.064708 -1.226798 -0.391779
      ESP Fit Center   24 is at   6.984489 -0.797664 -0.391779
      ESP Fit Center   25 is at   6.754666 -0.426488 -0.391779
      ESP Fit Center   26 is at   6.984489 -1.655931 -0.391779
      ESP Fit Center   27 is at   7.331691 -1.226798 -0.739718
      ESP Fit Center   28 is at   7.267053 -0.797952 -0.739718
      ESP Fit Center   29 is at   7.078882 -0.407210 -0.739718
      ESP Fit Center   30 is at   6.783898 -0.089293 -0.739718
      ESP Fit Center   31 is at   7.078882 -2.046385 -0.739718
      ESP Fit Center   32 is at   7.267053 -1.655643 -0.739718
      ESP Fit Center   33 is at   7.499524 -1.226798 -1.144902
      ESP Fit Center   34 is at   7.444230 -0.806798 -1.144902
      ESP Fit Center   35 is at   7.282116 -0.415420 -1.144902
      ESP Fit Center   36 is at   7.024230 -0.079336 -1.144902
      ESP Fit Center   37 is at   6.688146  0.178550 -1.144902
      ESP Fit Center   38 is at   7.024230 -2.374259 -1.144902
      ESP Fit Center   39 is at   7.282116 -2.038175 -1.144902
      ESP Fit Center   40 is at   7.444230 -1.646798 -1.144902
      ESP Fit Center   41 is at   7.556768 -1.226798 -1.579718
      ESP Fit Center   42 is at   7.503988 -0.808998 -1.579718
      ESP Fit Center   43 is at   7.348963 -0.417451 -1.579718
      ESP Fit Center   44 is at   7.101435 -0.076758 -1.579718
      ESP Fit Center   45 is at   6.776957  0.191673 -1.579718
      ESP Fit Center   46 is at   6.395917  0.370977 -1.579718
      ESP Fit Center   47 is at   6.776957 -2.645268 -1.579718
      ESP Fit Center   48 is at   7.101435 -2.376837 -1.579718
      ESP Fit Center   49 is at   7.348963 -2.036144 -1.579718
      ESP Fit Center   50 is at   7.503988 -1.644597 -1.579718
      ESP Fit Center   51 is at   7.499524 -1.226798 -2.014534
      ESP Fit Center   52 is at   7.444230 -0.806798 -2.014534
      ESP Fit Center   53 is at   7.282116 -0.415420 -2.014534
      ESP Fit Center   54 is at   7.024230 -0.079336 -2.014534
      ESP Fit Center   55 is at   6.688146  0.178550 -2.014534
      ESP Fit Center   56 is at   6.296768  0.340664 -2.014534
      ESP Fit Center   57 is at   5.876768  0.395958 -2.014534
      ESP Fit Center   58 is at   5.456768  0.340664 -2.014534
      ESP Fit Center   59 is at   6.688146 -2.632145 -2.014534
      ESP Fit Center   60 is at   7.024230 -2.374259 -2.014534
      ESP Fit Center   61 is at   7.282116 -2.038175 -2.014534
      ESP Fit Center   62 is at   7.444230 -1.646798 -2.014534
      ESP Fit Center   63 is at   7.331691 -1.226798 -2.419718
      ESP Fit Center   64 is at   7.267053 -0.797952 -2.419718
      ESP Fit Center   65 is at   7.078882 -0.407210 -2.419718
      ESP Fit Center   66 is at   6.783898 -0.089293 -2.419718
      ESP Fit Center   67 is at   6.408311  0.127552 -2.419718
      ESP Fit Center   68 is at   5.985495  0.224057 -2.419718
      ESP Fit Center   69 is at   5.553017  0.191647 -2.419718
      ESP Fit Center   70 is at   6.408311 -2.581147 -2.419718
      ESP Fit Center   71 is at   6.783898 -2.364302 -2.419718
      ESP Fit Center   72 is at   7.078882 -2.046385 -2.419718
      ESP Fit Center   73 is at   7.267053 -1.655643 -2.419718
      ESP Fit Center   74 is at   7.064708 -1.226798 -2.767658
      ESP Fit Center   75 is at   6.984489 -0.797664 -2.767658
      ESP Fit Center   76 is at   6.754666 -0.426488 -2.767658
      ESP Fit Center   77 is at   6.406278 -0.163398 -2.767658
      ESP Fit Center   78 is at   5.986377 -0.043926 -2.767658
      ESP Fit Center   79 is at   5.551673 -0.084207 -2.767658
      ESP Fit Center   80 is at   5.160875 -0.278801 -2.767658
      ESP Fit Center   81 is at   6.406278 -2.290197 -2.767658
      ESP Fit Center   82 is at   6.754666 -2.027107 -2.767658
      ESP Fit Center   83 is at   6.984489 -1.655931 -2.767658
      ESP Fit Center   84 is at   6.716768 -1.226798 -3.034641
      ESP Fit Center   85 is at   6.604230 -0.806798 -3.034641
      ESP Fit Center   86 is at   6.296768 -0.499336 -3.034641
      ESP Fit Center   87 is at   5.876768 -0.386798 -3.034641
      ESP Fit Center   88 is at   5.456768 -0.499336 -3.034641
      ESP Fit Center   89 is at   5.876768 -2.066798 -3.034641
      ESP Fit Center   90 is at   6.296768 -1.954259 -3.034641
      ESP Fit Center   91 is at   6.604230 -1.646798 -3.034641
      ESP Fit Center   92 is at   6.311584 -1.226798 -3.202474
      ESP Fit Center   93 is at   6.094176 -0.850236 -3.202474
      ESP Fit Center   94 is at   5.659360 -0.850236 -3.202474
      ESP Fit Center   95 is at   5.441952 -1.226798 -3.202474
      ESP Fit Center   96 is at   5.659360 -1.603359 -3.202474
      ESP Fit Center   97 is at   6.094176 -1.603359 -3.202474
      ESP Fit Center   98 is at   5.876768 -1.226798 -3.259718
      ESP Fit Center   99 is at   6.117483 -1.596230  0.607513
      ESP Fit Center  100 is at   6.435709 -1.596230  0.346351
      ESP Fit Center  101 is at   6.375559 -1.177878  0.346351
      ESP Fit Center  102 is at   6.696871 -1.596230  0.028124
      ESP Fit Center  103 is at   6.646133 -1.178364  0.028124
      ESP Fit Center  104 is at   6.496868 -0.784783  0.028124
      ESP Fit Center  105 is at   6.845573 -2.013304 -0.334938
      ESP Fit Center  106 is at   6.843516 -2.408465 -0.728884
      ESP Fit Center  107 is at   3.784088 -3.342316 -1.138573
      ESP Fit Center  108 is at   4.043728 -3.445392 -1.548263
      ESP Fit Center  109 is at   6.641270 -2.772842 -1.548263
      ESP Fit Center  110 is at   4.636904 -3.510818 -1.942208
      ESP Fit Center  111 is at   5.055823 -3.533532 -1.942208
      ESP Fit Center  112 is at   5.469829 -3.465659 -1.942208
      ESP Fit Center  113 is at   5.859566 -3.310373 -1.942208
      ESP Fit Center  114 is at   6.206810 -3.074936 -1.942208
      ESP Fit Center  115 is at   6.495323 -2.770357 -1.942208
      ESP Fit Center  116 is at   5.161253  0.137125 -2.305271
      ESP Fit Center  117 is at   4.740318  0.137125 -2.305271
      ESP Fit Center  118 is at   4.331614  0.036389 -2.305271
      ESP Fit Center  119 is at   3.958895 -0.159229 -2.305271
      ESP Fit Center  120 is at   5.161253 -3.329585 -2.305271
      ESP Fit Center  121 is at   5.569956 -3.228849 -2.305271
      ESP Fit Center  122 is at   5.942675 -3.033231 -2.305271
      ESP Fit Center  123 is at   6.257749 -2.754099 -2.305271
      ESP Fit Center  124 is at   4.739458 -0.126420 -2.623497
      ESP Fit Center  125 is at   4.333925 -0.245495 -2.623497
      ESP Fit Center  126 is at   5.162112 -3.066040 -2.623497
      ESP Fit Center  127 is at   5.567645 -2.946964 -2.623497
      ESP Fit Center  128 is at   5.923204 -2.718461 -2.623497
      ESP Fit Center  129 is at   5.058434 -0.434509 -2.884659
      ESP Fit Center  130 is at   4.631503 -0.474070 -2.884659
      ESP Fit Center  131 is at   5.470827 -2.640615 -2.884659
      ESP Fit Center  132 is at   5.812985 -2.382229 -2.884659
      ESP Fit Center  133 is at   4.950785 -0.792595 -3.078720
      ESP Fit Center  134 is at   5.646754 -1.998047 -3.078720
      ESP Fit Center  135 is at   5.360475 -1.596230 -3.198222
      ESP Fit Center  136 is at   5.155307 -2.503212  1.110404
      ESP Fit Center  137 is at   5.590123 -2.503212  1.053159
      ESP Fit Center  138 is at   5.372715 -2.126650  1.053159
      ESP Fit Center  139 is at   4.720491 -2.503212  1.053159
      ESP Fit Center  140 is at   4.937899 -2.879773  1.053159
      ESP Fit Center  141 is at   5.372715 -2.879773  1.053159
      ESP Fit Center  142 is at   5.995307 -2.503212  0.885326
      ESP Fit Center  143 is at   5.882768 -2.083212  0.885326
      ESP Fit Center  144 is at   4.427846 -2.923212  0.885326
      ESP Fit Center  145 is at   4.735307 -3.230673  0.885326
      ESP Fit Center  146 is at   5.155307 -3.343212  0.885326
      ESP Fit Center  147 is at   5.575307 -3.230673  0.885326
      ESP Fit Center  148 is at   5.882768 -2.923212  0.885326
      ESP Fit Center  149 is at   6.343246 -2.503212  0.618343
      ESP Fit Center  150 is at   6.263028 -2.074079  0.618343
      ESP Fit Center  151 is at   4.145301 -3.128581  0.618343
      ESP Fit Center  152 is at   4.439414 -3.451208  0.618343
      ESP Fit Center  153 is at   4.830212 -3.645802  0.618343
      ESP Fit Center  154 is at   5.264916 -3.686084  0.618343
      ESP Fit Center  155 is at   5.684817 -3.566611  0.618343
      ESP Fit Center  156 is at   6.033205 -3.303521  0.618343
      ESP Fit Center  157 is at   6.263028 -2.932345  0.618343
      ESP Fit Center  158 is at   6.610230 -2.503212  0.270404
      ESP Fit Center  159 is at   6.545592 -2.074366  0.270404
      ESP Fit Center  160 is at   4.088773 -3.492810  0.270404
      ESP Fit Center  161 is at   4.427846 -3.763212  0.270404
      ESP Fit Center  162 is at   4.831556 -3.921656  0.270404
      ESP Fit Center  163 is at   5.264034 -3.954066  0.270404
      ESP Fit Center  164 is at   5.686850 -3.857561  0.270404
      ESP Fit Center  165 is at   6.062437 -3.640716  0.270404
      ESP Fit Center  166 is at   6.357421 -3.322799  0.270404
      ESP Fit Center  167 is at   6.545592 -2.932058  0.270404
      ESP Fit Center  168 is at   6.778062 -2.503212 -0.134780
      ESP Fit Center  169 is at   3.749960 -3.314589 -0.134780
      ESP Fit Center  170 is at   4.007846 -3.650673 -0.134780
      ESP Fit Center  171 is at   4.343929 -3.908559 -0.134780
      ESP Fit Center  172 is at   4.735307 -4.070673 -0.134780
      ESP Fit Center  173 is at   5.155307 -4.125967 -0.134780
      ESP Fit Center  174 is at   5.575307 -4.070673 -0.134780
      ESP Fit Center  175 is at   5.966685 -3.908559 -0.134780
      ESP Fit Center  176 is at   6.302768 -3.650673 -0.134780
      ESP Fit Center  177 is at   6.560654 -3.314589 -0.134780
      ESP Fit Center  178 is at   6.722768 -2.923212 -0.134780
      ESP Fit Center  179 is at   6.835307 -2.503212 -0.569596
      ESP Fit Center  180 is at   3.593283 -3.121661 -0.569596
      ESP Fit Center  181 is at   3.796159 -3.490691 -0.569596
      ESP Fit Center  182 is at   4.084435 -3.797674 -0.569596
      ESP Fit Center  183 is at   4.439998 -4.023321 -0.569596
      ESP Fit Center  184 is at   4.840506 -4.153454 -0.569596
      ESP Fit Center  185 is at   5.260795 -4.179897 -0.569596
      ESP Fit Center  186 is at   5.674456 -4.100987 -0.569596
      ESP Fit Center  187 is at   6.055496 -3.921683 -0.569596
      ESP Fit Center  188 is at   6.379974 -3.653251 -0.569596
      ESP Fit Center  189 is at   6.627502 -3.312558 -0.569596
      ESP Fit Center  190 is at   6.782527 -2.921011 -0.569596
      ESP Fit Center  191 is at   3.749960 -3.314589 -1.004412
      ESP Fit Center  192 is at   4.007846 -3.650673 -1.004412
      ESP Fit Center  193 is at   4.343929 -3.908559 -1.004412
      ESP Fit Center  194 is at   4.735307 -4.070673 -1.004412
      ESP Fit Center  195 is at   5.155307 -4.125967 -1.004412
      ESP Fit Center  196 is at   5.575307 -4.070673 -1.004412
      ESP Fit Center  197 is at   5.966685 -3.908559 -1.004412
      ESP Fit Center  198 is at   6.302768 -3.650673 -1.004412
      ESP Fit Center  199 is at   6.560654 -3.314589 -1.004412
      ESP Fit Center  200 is at   6.722768 -2.923212 -1.004412
      ESP Fit Center  201 is at   4.088773 -3.492810 -1.409596
      ESP Fit Center  202 is at   4.427846 -3.763212 -1.409596
      ESP Fit Center  203 is at   4.831556 -3.921656 -1.409596
      ESP Fit Center  204 is at   5.264034 -3.954066 -1.409596
      ESP Fit Center  205 is at   5.686850 -3.857561 -1.409596
      ESP Fit Center  206 is at   6.062437 -3.640716 -1.409596
      ESP Fit Center  207 is at   6.357421 -3.322799 -1.409596
      ESP Fit Center  208 is at   4.830212 -3.645802 -1.757536
      ESP Fit Center  209 is at   5.264916 -3.686084 -1.757536
      ESP Fit Center  210 is at   5.684817 -3.566611 -1.757536
      ESP Fit Center  211 is at   6.033205 -3.303521 -1.757536
      ESP Fit Center  212 is at   3.167326 -2.808158 -1.088587
      ESP Fit Center  213 is at   2.611105 -1.818559 -1.493771
      ESP Fit Center  214 is at   2.666399 -2.238559 -1.493771
      ESP Fit Center  215 is at   2.828513 -2.629937 -1.493771
      ESP Fit Center  216 is at   3.086399 -2.966021 -1.493771
      ESP Fit Center  217 is at   3.422483 -3.223907 -1.493771
      ESP Fit Center  218 is at   3.813860 -3.386021 -1.493771
      ESP Fit Center  219 is at   2.874712 -0.831080 -1.928587
      ESP Fit Center  220 is at   2.671836 -1.200110 -1.928587
      ESP Fit Center  221 is at   2.567108 -1.607999 -1.928587
      ESP Fit Center  222 is at   2.567108 -2.029119 -1.928587
      ESP Fit Center  223 is at   2.671836 -2.437008 -1.928587
      ESP Fit Center  224 is at   2.874712 -2.806038 -1.928587
      ESP Fit Center  225 is at   3.162988 -3.113021 -1.928587
      ESP Fit Center  226 is at   3.518551 -3.338669 -1.928587
      ESP Fit Center  227 is at   3.919060 -3.468802 -1.928587
      ESP Fit Center  228 is at   4.339348 -3.495244 -1.928587
      ESP Fit Center  229 is at   3.813860 -0.251098 -2.363403
      ESP Fit Center  230 is at   3.422483 -0.413212 -2.363403
      ESP Fit Center  231 is at   3.086399 -0.671098 -2.363403
      ESP Fit Center  232 is at   2.828513 -1.007182 -2.363403
      ESP Fit Center  233 is at   2.666399 -1.398559 -2.363403
      ESP Fit Center  234 is at   2.611105 -1.818559 -2.363403
      ESP Fit Center  235 is at   2.666399 -2.238559 -2.363403
      ESP Fit Center  236 is at   2.828513 -2.629937 -2.363403
      ESP Fit Center  237 is at   3.086399 -2.966021 -2.363403
      ESP Fit Center  238 is at   3.422483 -3.223907 -2.363403
      ESP Fit Center  239 is at   3.813860 -3.386021 -2.363403
      ESP Fit Center  240 is at   4.233860 -3.441315 -2.363403
      ESP Fit Center  241 is at   4.653860 -3.386021 -2.363403
      ESP Fit Center  242 is at   4.342587 -0.367705 -2.768587
      ESP Fit Center  243 is at   3.910109 -0.400115 -2.768587
      ESP Fit Center  244 is at   3.506399 -0.558559 -2.768587
      ESP Fit Center  245 is at   3.167326 -0.828960 -2.768587
      ESP Fit Center  246 is at   2.923020 -1.187292 -2.768587
      ESP Fit Center  247 is at   2.795188 -1.601714 -2.768587
      ESP Fit Center  248 is at   2.795188 -2.035404 -2.768587
      ESP Fit Center  249 is at   2.923020 -2.449827 -2.768587
      ESP Fit Center  250 is at   3.167326 -2.808158 -2.768587
      ESP Fit Center  251 is at   3.506399 -3.078559 -2.768587
      ESP Fit Center  252 is at   3.910109 -3.237004 -2.768587
      ESP Fit Center  253 is at   4.342587 -3.269414 -2.768587
      ESP Fit Center  254 is at   4.765403 -3.172909 -2.768587
      ESP Fit Center  255 is at   5.140990 -2.956064 -2.768587
      ESP Fit Center  256 is at   4.763370 -0.755160 -3.116527
      ESP Fit Center  257 is at   4.343469 -0.635687 -3.116527
      ESP Fit Center  258 is at   3.908765 -0.675969 -3.116527
      ESP Fit Center  259 is at   3.517967 -0.870563 -3.116527
      ESP Fit Center  260 is at   3.223854 -1.193190 -3.116527
      ESP Fit Center  261 is at   3.066148 -1.600276 -3.116527
      ESP Fit Center  262 is at   3.066148 -2.036843 -3.116527
      ESP Fit Center  263 is at   3.223854 -2.443929 -3.116527
      ESP Fit Center  264 is at   3.517967 -2.766555 -3.116527
      ESP Fit Center  265 is at   3.908765 -2.961150 -3.116527
      ESP Fit Center  266 is at   4.343469 -3.001431 -3.116527
      ESP Fit Center  267 is at   4.763370 -2.881959 -3.116527
      ESP Fit Center  268 is at   5.111758 -2.618869 -3.116527
      ESP Fit Center  269 is at   5.341581 -2.247692 -3.116527
      ESP Fit Center  270 is at   5.073860 -1.818559 -3.383510
      ESP Fit Center  271 is at   4.961322 -1.398559 -3.383510
      ESP Fit Center  272 is at   4.653860 -1.091098 -3.383510
      ESP Fit Center  273 is at   4.233860 -0.978559 -3.383510
      ESP Fit Center  274 is at   3.813860 -1.091098 -3.383510
      ESP Fit Center  275 is at   3.506399 -1.398559 -3.383510
      ESP Fit Center  276 is at   3.393860 -1.818559 -3.383510
      ESP Fit Center  277 is at   3.506399 -2.238559 -3.383510
      ESP Fit Center  278 is at   3.813860 -2.546021 -3.383510
      ESP Fit Center  279 is at   4.233860 -2.658559 -3.383510
      ESP Fit Center  280 is at   4.653860 -2.546021 -3.383510
      ESP Fit Center  281 is at   4.961322 -2.238559 -3.383510
      ESP Fit Center  282 is at   4.668676 -1.818559 -3.551343
      ESP Fit Center  283 is at   4.451268 -1.441998 -3.551343
      ESP Fit Center  284 is at   4.016452 -1.441998 -3.551343
      ESP Fit Center  285 is at   3.799044 -1.818559 -3.551343
      ESP Fit Center  286 is at   4.016452 -2.195121 -3.551343
      ESP Fit Center  287 is at   4.451268 -2.195121 -3.551343
      ESP Fit Center  288 is at   4.233860 -1.818559 -3.608587
      ESP Fit Center  289 is at   4.738369 -0.545916  1.872011
      ESP Fit Center  290 is at   5.132314 -0.545916  1.752509
      ESP Fit Center  291 is at   5.024648 -0.947733  1.752509
      ESP Fit Center  292 is at   5.495377 -0.545916  1.558448
      ESP Fit Center  293 is at   4.848721 -1.590300  1.558448
      ESP Fit Center  294 is at   5.190879 -1.331915  1.558448
      ESP Fit Center  295 is at   5.416592 -0.967375  1.558448
      ESP Fit Center  296 is at   4.945539 -1.896650  1.297286
      ESP Fit Center  297 is at   5.301098 -1.668146  1.297286
      ESP Fit Center  298 is at   5.577877 -1.348726  1.297286
      ESP Fit Center  299 is at   5.753454 -0.964267  1.297286
      ESP Fit Center  300 is at   5.635644 -1.703785  0.979060
      ESP Fit Center  301 is at   5.874762 -1.357362  0.979060
      ESP Fit Center  302 is at   6.024027 -0.963781  0.979060
      ESP Fit Center  303 is at   6.089509 -1.360562  0.615997
      ESP Fit Center  304 is at   6.223467 -0.962990  0.615997
      ESP Fit Center  305 is at   3.239894  1.059923 -0.991273
      ESP Fit Center  306 is at   2.920141  0.788322 -0.991273
      ESP Fit Center  307 is at   3.336789  0.891085 -1.354335
      ESP Fit Center  308 is at   3.021715  0.611954 -1.354335
      ESP Fit Center  309 is at   2.782597  0.265531 -1.354335
      ESP Fit Center  310 is at   3.711819  0.804819 -1.672562
      ESP Fit Center  311 is at   3.356261  0.576315 -1.672562
      ESP Fit Center  312 is at   3.079481  0.256895 -1.672562
      ESP Fit Center  313 is at   2.903905 -0.127564 -1.672562
      ESP Fit Center  314 is at   2.843755 -0.545916 -1.672562
      ESP Fit Center  315 is at   4.436328  0.615805 -1.933724
      ESP Fit Center  316 is at   4.009397  0.576244 -1.933724
      ESP Fit Center  317 is at   3.625587  0.385129 -1.933724
      ESP Fit Center  318 is at   3.336733  0.068271 -1.933724
      ESP Fit Center  319 is at   3.181847 -0.331536 -1.933724
      ESP Fit Center  320 is at   4.328679  0.257720 -2.127785
      ESP Fit Center  321 is at   3.926862  0.150053 -2.127785
      ESP Fit Center  322 is at   3.632711 -0.144098 -2.127785
      ESP Fit Center  323 is at   4.884718  0.540154  1.942301
      ESP Fit Center  324 is at   5.292225  0.540154  1.899470
      ESP Fit Center  325 is at   5.088471  0.893065  1.899470
      ESP Fit Center  326 is at   4.680964  0.187242  1.899470
      ESP Fit Center  327 is at   5.088471  0.187242  1.899470
      ESP Fit Center  328 is at   5.681922  0.540154  1.772850
      ESP Fit Center  329 is at   5.575117  0.938756  1.772850
      ESP Fit Center  330 is at   5.283320  1.230553  1.772850
      ESP Fit Center  331 is at   4.884718  1.337358  1.772850
      ESP Fit Center  332 is at   5.283320 -0.150245  1.772850
      ESP Fit Center  333 is at   5.575117  0.141552  1.772850
      ESP Fit Center  334 is at   6.036777  0.540154  1.567974
      ESP Fit Center  335 is at   5.958981  0.956326  1.567974
      ESP Fit Center  336 is at   5.736100  1.316291  1.567974
      ESP Fit Center  337 is at   5.398235  1.571435  1.567974
      ESP Fit Center  338 is at   4.991017  1.687298  1.567974
      ESP Fit Center  339 is at   4.569442  1.648234  1.567974
      ESP Fit Center  340 is at   5.736100 -0.235983  1.567974
      ESP Fit Center  341 is at   5.958981  0.123982  1.567974
      ESP Fit Center  342 is at   6.341282  0.540154  1.293797
      ESP Fit Center  343 is at   6.282281  0.950515  1.293797
      ESP Fit Center  344 is at   6.110057  1.327632  1.293797
      ESP Fit Center  345 is at   5.838564  1.640951  1.293797
      ESP Fit Center  346 is at   5.489796  1.865091  1.293797
      ESP Fit Center  347 is at   5.092009  1.981892  1.293797
      ESP Fit Center  348 is at   4.677427  1.981892  1.293797
      ESP Fit Center  349 is at   4.279639  1.865091  1.293797
      ESP Fit Center  350 is at   5.838564 -0.560644  1.293797
      ESP Fit Center  351 is at   6.110057 -0.247324  1.293797
      ESP Fit Center  352 is at   6.282281  0.129792  1.293797
      ESP Fit Center  353 is at   6.582128  0.540154  0.962301
      ESP Fit Center  354 is at   6.528800  0.962282  0.962301
      ESP Fit Center  355 is at   6.372169  1.357887  0.962301
      ESP Fit Center  356 is at   6.122076  1.702111  0.962301
      ESP Fit Center  357 is at   5.794236  1.973324  0.962301
      ESP Fit Center  358 is at   5.409246  2.154486  0.962301
      ESP Fit Center  359 is at   4.991299  2.234214  0.962301
      ESP Fit Center  360 is at   4.566655  2.207498  0.962301
      ESP Fit Center  361 is at   4.161996  2.076016  0.962301
      ESP Fit Center  362 is at   6.122076 -0.621803  0.962301
      ESP Fit Center  363 is at   6.372169 -0.277580  0.962301
      ESP Fit Center  364 is at   6.528800  0.118025  0.962301
      ESP Fit Center  365 is at   6.748789  0.540154  0.587974
      ESP Fit Center  366 is at   6.702053  0.954949  0.587974
      ESP Fit Center  367 is at   6.564188  1.348944  0.587974
      ESP Fit Center  368 is at   6.342107  1.702383  0.587974
      ESP Fit Center  369 is at   6.046947  1.997543  0.587974
      ESP Fit Center  370 is at   5.693508  2.219624  0.587974
      ESP Fit Center  371 is at   5.299513  2.357488  0.587974
      ESP Fit Center  372 is at   4.884718  2.404225  0.587974
      ESP Fit Center  373 is at   4.469923  2.357488  0.587974
      ESP Fit Center  374 is at   4.075928  2.219624  0.587974
      ESP Fit Center  375 is at   6.342107 -0.622075  0.587974
      ESP Fit Center  376 is at   6.564188 -0.268636  0.587974
      ESP Fit Center  377 is at   6.702053  0.125359  0.587974
      ESP Fit Center  378 is at   6.833981  0.540154  0.187177
      ESP Fit Center  379 is at   6.788408  0.959188  0.187177
      ESP Fit Center  380 is at   6.653821  1.358628  0.187177
      ESP Fit Center  381 is at   6.436513  1.719797  0.187177
      ESP Fit Center  382 is at   6.146644  2.025808  0.187177
      ESP Fit Center  383 is at   5.797769  2.262351  0.187177
      ESP Fit Center  384 is at   5.406201  2.418366  0.187177
      ESP Fit Center  385 is at   4.990249  2.486558  0.187177
      ESP Fit Center  386 is at   4.569362  2.463738  0.187177
      ESP Fit Center  387 is at   4.163221  2.350974  0.187177
      ESP Fit Center  388 is at   6.436513 -0.639490  0.187177
      ESP Fit Center  389 is at   6.653821 -0.278320  0.187177
      ESP Fit Center  390 is at   6.788408  0.121120  0.187177
      ESP Fit Center  391 is at   6.833981  0.540154 -0.222575
      ESP Fit Center  392 is at   6.788408  0.959188 -0.222575
      ESP Fit Center  393 is at   6.653821  1.358628 -0.222575
      ESP Fit Center  394 is at   6.436513  1.719797 -0.222575
      ESP Fit Center  395 is at   6.146644  2.025808 -0.222575
      ESP Fit Center  396 is at   5.797769  2.262351 -0.222575
      ESP Fit Center  397 is at   5.406201  2.418366 -0.222575
      ESP Fit Center  398 is at   4.990249  2.486558 -0.222575
      ESP Fit Center  399 is at   4.569362  2.463738 -0.222575
      ESP Fit Center  400 is at   4.163221  2.350974 -0.222575
      ESP Fit Center  401 is at   6.653821 -0.278320 -0.222575
      ESP Fit Center  402 is at   6.788408  0.121120 -0.222575
      ESP Fit Center  403 is at   6.748789  0.540154 -0.623372
      ESP Fit Center  404 is at   6.702053  0.954949 -0.623372
      ESP Fit Center  405 is at   6.564188  1.348944 -0.623372
      ESP Fit Center  406 is at   6.342107  1.702383 -0.623372
      ESP Fit Center  407 is at   6.046947  1.997543 -0.623372
      ESP Fit Center  408 is at   5.693508  2.219624 -0.623372
      ESP Fit Center  409 is at   5.299513  2.357488 -0.623372
      ESP Fit Center  410 is at   4.884718  2.404225 -0.623372
      ESP Fit Center  411 is at   4.469923  2.357488 -0.623372
      ESP Fit Center  412 is at   4.075928  2.219624 -0.623372
      ESP Fit Center  413 is at   6.702053  0.125359 -0.623372
      ESP Fit Center  414 is at   6.582128  0.540154 -0.997699
      ESP Fit Center  415 is at   6.528800  0.962282 -0.997699
      ESP Fit Center  416 is at   6.372169  1.357887 -0.997699
      ESP Fit Center  417 is at   6.122076  1.702111 -0.997699
      ESP Fit Center  418 is at   5.794236  1.973324 -0.997699
      ESP Fit Center  419 is at   5.409246  2.154486 -0.997699
      ESP Fit Center  420 is at   4.991299  2.234214 -0.997699
      ESP Fit Center  421 is at   4.566655  2.207498 -0.997699
      ESP Fit Center  422 is at   4.161996  2.076016 -0.997699
      ESP Fit Center  423 is at   3.802748  1.848031 -0.997699
      ESP Fit Center  424 is at   3.511485  1.537866 -0.997699
      ESP Fit Center  425 is at   3.306506  1.165012 -0.997699
      ESP Fit Center  426 is at   6.341282  0.540154 -1.329195
      ESP Fit Center  427 is at   6.282281  0.950515 -1.329195
      ESP Fit Center  428 is at   6.110057  1.327632 -1.329195
      ESP Fit Center  429 is at   5.838564  1.640951 -1.329195
      ESP Fit Center  430 is at   5.489796  1.865091 -1.329195
      ESP Fit Center  431 is at   5.092009  1.981892 -1.329195
      ESP Fit Center  432 is at   4.677427  1.981892 -1.329195
      ESP Fit Center  433 is at   4.279639  1.865091 -1.329195
      ESP Fit Center  434 is at   3.930871  1.640951 -1.329195
      ESP Fit Center  435 is at   3.659378  1.327632 -1.329195
      ESP Fit Center  436 is at   6.036777  0.540154 -1.603372
      ESP Fit Center  437 is at   5.958981  0.956326 -1.603372
      ESP Fit Center  438 is at   5.736100  1.316291 -1.603372
      ESP Fit Center  439 is at   5.398235  1.571435 -1.603372
      ESP Fit Center  440 is at   4.991017  1.687298 -1.603372
      ESP Fit Center  441 is at   4.569442  1.648234 -1.603372
      ESP Fit Center  442 is at   4.190447  1.459517 -1.603372
      ESP Fit Center  443 is at   3.905218  1.146635 -1.603372
      ESP Fit Center  444 is at   5.681922  0.540154 -1.808248
      ESP Fit Center  445 is at   5.575117  0.938756 -1.808248
      ESP Fit Center  446 is at   5.283320  1.230553 -1.808248
      ESP Fit Center  447 is at   4.884718  1.337358 -1.808248
      ESP Fit Center  448 is at   4.486116  1.230553 -1.808248
      ESP Fit Center  449 is at   4.194319  0.938756 -1.808248
      ESP Fit Center  450 is at   5.292225  0.540154 -1.934868
      ESP Fit Center  451 is at   5.088471  0.893065 -1.934868
      ESP Fit Center  452 is at   4.680964  0.893065 -1.934868
      ESP Fit Center  453 is at   4.884718  0.540154 -1.977699
      ESP Fit Center  454 is at  -2.262978  3.427502  0.213487
      ESP Fit Center  455 is at  -2.653777  3.232908  0.213487
      ESP Fit Center  456 is at  -2.947890  2.910281  0.213487
      ESP Fit Center  457 is at  -3.105596  2.503195  0.213487
      ESP Fit Center  458 is at  -2.261634  3.703357 -0.134452
      ESP Fit Center  459 is at  -2.665345  3.544912 -0.134452
      ESP Fit Center  460 is at  -3.004417  3.274511 -0.134452
      ESP Fit Center  461 is at  -3.248723  2.916179 -0.134452
      ESP Fit Center  462 is at  -3.376556  2.501757 -0.134452
      ESP Fit Center  463 is at  -1.937883  3.907667 -0.539636
      ESP Fit Center  464 is at  -2.357883  3.852373 -0.539636
      ESP Fit Center  465 is at  -2.749261  3.690259 -0.539636
      ESP Fit Center  466 is at  -3.085345  3.432373 -0.539636
      ESP Fit Center  467 is at  -3.343231  3.096290 -0.539636
      ESP Fit Center  468 is at  -3.505345  2.704912 -0.539636
      ESP Fit Center  469 is at  -3.560639  2.284912 -0.539636
      ESP Fit Center  470 is at  -1.418735  3.882687 -0.974452
      ESP Fit Center  471 is at  -1.832395  3.961597 -0.974452
      ESP Fit Center  472 is at  -2.252684  3.935154 -0.974452
      ESP Fit Center  473 is at  -2.653192  3.805021 -0.974452
      ESP Fit Center  474 is at  -3.008756  3.579374 -0.974452
      ESP Fit Center  475 is at  -3.297032  3.272391 -0.974452
      ESP Fit Center  476 is at  -3.499908  2.903361 -0.974452
      ESP Fit Center  477 is at  -3.604636  2.495472 -0.974452
      ESP Fit Center  478 is at  -3.604636  2.074352 -0.974452
      ESP Fit Center  479 is at  -1.517883  3.852373 -1.409268
      ESP Fit Center  480 is at  -1.937883  3.907667 -1.409268
      ESP Fit Center  481 is at  -2.357883  3.852373 -1.409268
      ESP Fit Center  482 is at  -2.749261  3.690259 -1.409268
      ESP Fit Center  483 is at  -3.085345  3.432373 -1.409268
      ESP Fit Center  484 is at  -3.343231  3.096290 -1.409268
      ESP Fit Center  485 is at  -3.505345  2.704912 -1.409268
      ESP Fit Center  486 is at  -3.560639  2.284912 -1.409268
      ESP Fit Center  487 is at  -3.505345  1.864912 -1.409268
      ESP Fit Center  488 is at  -1.406340  3.639261 -1.814452
      ESP Fit Center  489 is at  -1.829157  3.735766 -1.814452
      ESP Fit Center  490 is at  -2.261634  3.703357 -1.814452
      ESP Fit Center  491 is at  -2.665345  3.544912 -1.814452
      ESP Fit Center  492 is at  -3.004417  3.274511 -1.814452
      ESP Fit Center  493 is at  -3.248723  2.916179 -1.814452
      ESP Fit Center  494 is at  -3.376556  2.501757 -1.814452
      ESP Fit Center  495 is at  -3.376556  2.068067 -1.814452
      ESP Fit Center  496 is at  -3.248723  1.653645 -1.814452
      ESP Fit Center  497 is at  -1.408373  3.348312 -2.162392
      ESP Fit Center  498 is at  -1.828274  3.467784 -2.162392
      ESP Fit Center  499 is at  -2.262978  3.427502 -2.162392
      ESP Fit Center  500 is at  -2.653777  3.232908 -2.162392
      ESP Fit Center  501 is at  -2.947890  2.910281 -2.162392
      ESP Fit Center  502 is at  -3.105596  2.503195 -2.162392
      ESP Fit Center  503 is at  -3.105596  2.066629 -2.162392
      ESP Fit Center  504 is at  -2.947890  1.659542 -2.162392
      ESP Fit Center  505 is at  -2.653777  1.336916 -2.162392
      ESP Fit Center  506 is at  -1.210422  2.704912 -2.429375
      ESP Fit Center  507 is at  -1.517883  3.012373 -2.429375
      ESP Fit Center  508 is at  -1.937883  3.124912 -2.429375
      ESP Fit Center  509 is at  -2.357883  3.012373 -2.429375
      ESP Fit Center  510 is at  -2.665345  2.704912 -2.429375
      ESP Fit Center  511 is at  -2.777883  2.284912 -2.429375
      ESP Fit Center  512 is at  -2.665345  1.864912 -2.429375
      ESP Fit Center  513 is at  -2.357883  1.557450 -2.429375
      ESP Fit Center  514 is at  -1.937883  1.444912 -2.429375
      ESP Fit Center  515 is at  -1.503067  2.284912 -2.597208
      ESP Fit Center  516 is at  -1.720475  2.661474 -2.597208
      ESP Fit Center  517 is at  -2.155291  2.661474 -2.597208
      ESP Fit Center  518 is at  -2.372699  2.284912 -2.597208
      ESP Fit Center  519 is at  -2.155291  1.908350 -2.597208
      ESP Fit Center  520 is at  -1.720475  1.908350 -2.597208
      ESP Fit Center  521 is at  -1.937883  2.284912 -2.654452
      ESP Fit Center  522 is at   1.121256  4.276919  0.224624
      ESP Fit Center  523 is at   0.772869  4.540009  0.224624
      ESP Fit Center  524 is at   0.352968  4.659482  0.224624
      ESP Fit Center  525 is at  -0.081736  4.619200  0.224624
      ESP Fit Center  526 is at  -0.472535  4.424606  0.224624
      ESP Fit Center  527 is at   1.445472  4.296197 -0.123316
      ESP Fit Center  528 is at   1.150488  4.614114 -0.123316
      ESP Fit Center  529 is at   0.774902  4.830959 -0.123316
      ESP Fit Center  530 is at   0.352085  4.927464 -0.123316
      ESP Fit Center  531 is at  -0.080392  4.895054 -0.123316
      ESP Fit Center  532 is at  -0.484103  4.736610 -0.123316
      ESP Fit Center  533 is at  -0.823175  4.466208 -0.123316
      ESP Fit Center  534 is at   1.648706  4.287987 -0.528500
[...]
 7134 Fit      -0.004860
 7135 Fit      -0.005357
 7136 Fit      -0.005531
 7137 Fit      -0.005442
 7138 Fit      -0.005165
 7139 Fit      -0.004787
 7140 Fit      -0.004390
 7141 Fit      -0.004049
 7142 Fit      -0.003818
 7143 Fit      -0.003731
 7144 Fit      -0.003796
 7145 Fit      -0.003995
 7146 Fit      -0.004287
 7147 Fit      -0.004611
 7148 Fit      -0.004902
 7149 Fit      -0.005090
 7150 Fit      -0.005120
 7151 Fit      -0.004958
 7152 Fit      -0.004606
 7153 Fit      -0.004109
 7154 Fit      -0.003562
 7155 Fit      -0.003105
 7156 Fit      -0.002900
 7157 Fit      -0.003089
 7158 Fit      -0.003730
 7159 Fit      -0.004754
 7160 Fit      -0.005856
 7161 Fit      -0.006581
 7162 Fit      -0.006969
 7163 Fit      -0.006746
 7164 Fit      -0.005790
 7165 Fit      -0.004308
 7166 Fit      -0.002824
 7167 Fit      -0.001898
 7168 Fit      -0.001795
 7169 Fit      -0.002383
 7170 Fit      -0.003323
 7171 Fit      -0.004289
 7172 Fit      -0.005070
 7173 Fit      -0.005568
 7174 Fit      -0.005773
 7175 Fit      -0.005728
 7176 Fit      -0.005509
 7177 Fit      -0.005208
 7178 Fit      -0.004912
 7179 Fit      -0.004693
 7180 Fit      -0.004599
 7181 Fit      -0.004645
 7182 Fit      -0.004815
 7183 Fit      -0.005063
 7184 Fit      -0.005323
 7185 Fit      -0.005522
 7186 Fit      -0.005596
 7187 Fit      -0.005502
 7188 Fit      -0.005241
 7189 Fit      -0.004860
 7190 Fit      -0.004459
 7191 Fit      -0.004176
 7192 Fit      -0.004147
 7193 Fit      -0.004453
 7194 Fit      -0.005071
 7195 Fit      -0.005898
 7196 Fit      -0.006257
 7197 Fit      -0.006308
 7198 Fit      -0.005896
 7199 Fit      -0.005081
 7200 Fit      -0.004182
 7201 Fit      -0.003604
 7202 Fit      -0.003573
 7203 Fit      -0.004021
 7204 Fit      -0.004697
 7205 Fit      -0.005350
 7206 Fit      -0.005815
 7207 Fit      -0.006035
 7208 Fit      -0.006032
 7209 Fit      -0.005876
 7210 Fit      -0.005662
 7211 Fit      -0.005476
 7212 Fit      -0.005384
 7213 Fit      -0.005413
 7214 Fit      -0.005549
 7215 Fit      -0.005743
 7216 Fit      -0.005923
 7217 Fit      -0.006018
 7218 Fit      -0.005976
 7219 Fit      -0.005791
 7220 Fit      -0.005509
 7221 Fit      -0.005231
 7222 Fit      -0.005081
 7223 Fit      -0.005156
 7224 Fit      -0.005464
 7225 Fit      -0.006069
 7226 Fit      -0.006178
 7227 Fit      -0.006029
 7228 Fit      -0.005591
 7229 Fit      -0.005076
 7230 Fit      -0.004799
 7231 Fit      -0.004923
 7232 Fit      -0.005344
 7233 Fit      -0.005830
 7234 Fit      -0.006186
 7235 Fit      -0.006333
 7236 Fit      -0.006300
 7237 Fit      -0.006177
 7238 Fit      -0.006067
 7239 Fit      -0.006040
 7240 Fit      -0.006113
 7241 Fit      -0.006245
 7242 Fit      -0.006362
 7243 Fit      -0.006385
 7244 Fit      -0.006279
 7245 Fit      -0.006078
 7246 Fit      -0.005879
 7247 Fit      -0.005795
 7248 Fit      -0.005882
 7249 Fit      -0.006314
 7250 Fit      -0.006269
 7251 Fit      -0.006057
 7252 Fit      -0.005786
 7253 Fit      -0.005704
 7254 Fit      -0.005909
 7255 Fit      -0.006250
 7256 Fit      -0.006512
 7257 Fit      -0.006604
 7258 Fit      -0.006575
 7259 Fit      -0.006535
 7260 Fit      -0.006558
 7261 Fit      -0.006634
 7262 Fit      -0.006687
 7263 Fit      -0.006642
 7264 Fit      -0.006502
 7265 Fit      -0.006354
 7266 Fit      -0.006296
 7267 Fit      -0.006574
 7268 Fit      -0.006462
 7269 Fit      -0.006330
 7270 Fit      -0.006366
 7271 Fit      -0.006584
 7272 Fit      -0.006773
 7273 Fit      -0.006835
 7274 Fit      -0.006853
 7275 Fit      -0.006887
 7276 Fit      -0.006880
 7277 Fit      -0.006782
 7278 Fit      -0.006659
 7279 Fit      -0.006796
 7280 Fit      -0.006713
 7281 Fit      -0.006817
 7282 Fit      -0.006953
 7283 Fit      -0.006990
 7284 Fit      -0.006924
 7285 Fit      -0.006933
 7286 Fit      -0.011370
 7287 Fit      -0.012107
 7288 Fit      -0.012870
 7289 Fit      -0.012575
 7290 Fit      -0.007717
 7291 Fit      -0.006604
 7292 Fit      -0.007819
 7293 Fit      -0.008172
 7294 Fit      -0.005471
 7295 Fit      -0.007002
 7296 Fit      -0.004417
 7297 Fit      -0.006566
 7298 Fit      -0.007878
 7299 Fit      -0.008761
 7300 Fit      -0.009086
 7301 Fit      -0.006425
 7302 Fit      -0.007494
 7303 Fit      -0.008294
 7304 Fit      -0.009107
 7305 Fit      -0.009890
 7306 Fit      -0.010452
 7307 Fit      -0.010634
 7308 Fit      -0.007604
 7309 Fit      -0.008007
 7310 Fit      -0.008171
 7311 Fit      -0.008520
 7312 Fit      -0.009149
 7313 Fit      -0.009983
 7314 Fit      -0.010843
 7315 Fit      -0.011514
 7316 Fit      -0.011869
 7317 Fit      -0.009756
 7318 Fit      -0.008881
 7319 Fit      -0.008344
 7320 Fit      -0.008247
 7321 Fit      -0.008572
 7322 Fit      -0.009256
 7323 Fit      -0.010190
 7324 Fit      -0.008785
 7325 Fit      -0.007873
 7326 Fit      -0.007576
 7327 Fit      -0.007799
 7328 Fit      -0.008473
 7329 Fit      -0.006808
 7330 Fit      -0.006371
 7331 Fit      -0.006480
 7332 Fit      -0.005090
 7333 Fit      -0.004597
 7334 Fit      -0.002880
 7335 Fit      -0.001249
 7336 Fit       0.000890
 7337 Fit      -0.013520
 7338 Fit      -0.010144
 7339 Fit      -0.006497
 7340 Fit      -0.010317
 7341 Fit      -0.009426
 7342 Fit      -0.007268
 7343 Fit      -0.006691
 7344 Fit      -0.007727
 7345 Fit      -0.007047
 7346 Fit      -0.007449
 7347 Fit      -0.005170
 7348 Fit      -0.003083
 7349 Fit      -0.001377
 7350 Fit      -0.004066
 7351 Fit      -0.006115
 7352 Fit      -0.006709
 7353 Fit      -0.006919
 7354 Fit      -0.005079
 7355 Fit      -0.003806
 7356 Fit      -0.003599
 7357 Fit      -0.004664
 7358 Fit      -0.006408
 7359 Fit      -0.007146
 7360 Fit      -0.005892
 7361 Fit      -0.005765
 7362 Fit      -0.010394
 7363 Fit      -0.015936
 7364 Fit      -0.013027
 7365 Fit      -0.010370
 7366 Fit      -0.018614
 7367 Fit      -0.013945
 7368 Fit      -0.010551
 7369 Fit      -0.008481
 7370 Fit      -0.018430
 7371 Fit      -0.013241
 7372 Fit      -0.009662
 7373 Fit      -0.007438
 7374 Fit      -0.023983
 7375 Fit      -0.016916
 7376 Fit      -0.011883
 7377 Fit      -0.008366
 7378 Fit      -0.006037
 7379 Fit      -0.019504
 7380 Fit      -0.013299
 7381 Fit      -0.008869
 7382 Fit      -0.005698
 7383 Fit      -0.003486
 7384 Fit      -0.021998
 7385 Fit      -0.014843
 7386 Fit      -0.009663
 7387 Fit      -0.005792
 7388 Fit      -0.002797
 7389 Fit      -0.023027
 7390 Fit      -0.015401
 7391 Fit      -0.009812
 7392 Fit      -0.005510
 7393 Fit      -0.001974
 7394 Fit      -0.021274
 7395 Fit      -0.013844
 7396 Fit      -0.008284
 7397 Fit      -0.003823
 7398 Fit       0.000145
 7399 Fit      -0.017936
 7400 Fit      -0.011164
 7401 Fit      -0.005878
 7402 Fit      -0.001319
 7403 Fit      -0.022107
 7404 Fit      -0.014459
 7405 Fit      -0.008551
 7406 Fit      -0.003632
 7407 Fit      -0.015777
 7408 Fit      -0.009707
 7409 Fit      -0.004635
 7410 Fit      -0.016136
 7411 Fit      -0.010713
 7412 Fit      -0.005933
 7413 Fit      -0.014474
 7414 Fit      -0.010652
 7415 Fit       0.000941
 7416 Fit       0.003371
 7417 Fit      -0.000524
 7418 Fit      -0.002434
 7419 Fit      -0.001033
 7420 Fit       0.002377
 7421 Fit       0.004789
 7422 Fit      -0.004569
 7423 Fit      -0.005332
 7424 Fit      -0.004677
 7425 Fit      -0.002753
 7426 Fit       0.000252
 7427 Fit       0.003796
 7428 Fit       0.007039
 7429 Fit      -0.007474
 7430 Fit      -0.007765
 7431 Fit      -0.007364
 7432 Fit       0.001587
 7433 Fit       0.005196
 7434 Fit       0.008652
 7435 Fit      -0.009747
 7436 Fit      -0.009738
 7437 Fit      -0.011337
 7438 Fit      -0.011442
 7439 Fit       0.017116
 7440 Fit       0.022534
 7441 Fit       0.010679
 7442 Fit       0.014999
 7443 Fit       0.020008
 7444 Fit       0.011405
 7445 Fit       0.015354
 7446 Fit       0.007611
 7447 Fit       0.010307
 7448 Fit       0.002876
 7449 Fit       0.004975
 7450 Fit       0.005621
 7451 Fit       0.000746
 7452 Fit       0.000628
 7453 Fit      -0.001289
 7454 Fit      -0.005555
 7455 Fit      -0.002907
 7456 Fit      -0.003372
 7457 Fit      -0.001322
 7458 Fit      -0.002712
 7459 Fit      -0.002502
 7460 Fit      -0.000526
 7461 Fit      -0.002860
 7462 Fit      -0.004749
 7463 Fit      -0.005706
 7464 Fit      -0.005817
 7465 Fit      -0.005019
 7466 Fit      -0.004924
 7467 Fit      -0.006786
 7468 Fit      -0.007903
 7469 Fit      -0.008396
 7470 Fit      -0.008429
 7471 Fit      -0.010545
 7472 Fit      -0.010606
 7473 Fit      -0.001704
 7474 Fit      -0.000097
 7475 Fit      -0.005841
 7476 Fit      -0.003882
 7477 Fit       0.008710
 7478 Fit       0.011688
 7479 Fit       0.005912
 7480 Fit       0.009234
 7481 Fit       0.012452
 7482 Fit       0.006367
 7483 Fit       0.009512
 7484 Fit       0.012564
 7485 Fit       0.015526
 7486 Fit       0.008512
 7487 Fit       0.011586
 7488 Fit       0.014542
 7489 Fit       0.017517
 7490 Fit       0.009369
 7491 Fit       0.012468
 7492 Fit       0.015437
 7493 Fit       0.018450
 7494 Fit       0.010041
 7495 Fit       0.013116
 7496 Fit       0.016058
 7497 Fit       0.019048
 7498 Fit       0.022314
 7499 Fit       0.011717
 7500 Fit       0.014845
 7501 Fit       0.017921
 7502 Fit       0.021164
 7503 Fit       0.013269
 7504 Fit       0.016441
 7505 Fit       0.019683
 7506 Fit       0.023239
 7507 Fit       0.013729
 7508 Fit       0.017042
 7509 Fit       0.020517
 7510 Fit       0.024450
 7511 Fit       0.029205
 7512 Fit       0.015620
 7513 Fit       0.019327
 7514 Fit       0.023529
 7515 Fit       0.028715
 7516 Fit       0.012705
 7517 Fit       0.016606
 7518 Fit       0.020856
 7519 Fit       0.026006
 7520 Fit       0.013243
 7521 Fit       0.017389
 7522 Fit       0.022123
 7523 Fit       0.028088
 7524 Fit       0.015612
 7525 Fit       0.020371
 7526 Fit       0.003920
 7527 Fit       0.002615
 7528 Fit       0.002005
 7529 Fit       0.003136
 7530 Fit       0.004930
 7531 Fit       0.005809
 7532 Fit       0.004600
 7533 Fit       0.000925
 7534 Fit      -0.000204
 7535 Fit      -0.000119
 7536 Fit       0.000843
 7537 Fit       0.002199
 7538 Fit       0.003826
 7539 Fit       0.005216
 7540 Fit       0.002962
 7541 Fit      -0.001274
 7542 Fit      -0.002749
 7543 Fit      -0.003174
 7544 Fit      -0.002619
 7545 Fit      -0.001485
 7546 Fit      -0.000200
 7547 Fit       0.001059
 7548 Fit       0.002421
 7549 Fit       0.005804
 7550 Fit       0.003397
 7551 Fit       0.000929
 7552 Fit      -0.004157
 7553 Fit      -0.006115
 7554 Fit      -0.006966
 7555 Fit      -0.006640
 7556 Fit      -0.005435
 7557 Fit      -0.003844
 7558 Fit      -0.002313
 7559 Fit      -0.001056
 7560 Fit       0.000006
 7561 Fit       0.001179
 7562 Fit       0.004175
 7563 Fit       0.001387
 7564 Fit      -0.001493
 7565 Fit      -0.007972
 7566 Fit      -0.010689
 7567 Fit      -0.012077
 7568 Fit      -0.011937
 7569 Fit      -0.010522
 7570 Fit      -0.008378
 7571 Fit      -0.006116
 7572 Fit      -0.004220
 7573 Fit      -0.002906
 7574 Fit      -0.002070
 7575 Fit      -0.001347
 7576 Fit       0.002424
 7577 Fit      -0.000899
 7578 Fit      -0.004495
 7579 Fit      -0.013100
 7580 Fit      -0.016955
 7581 Fit      -0.019161
 7582 Fit      -0.019353
 7583 Fit      -0.017732
 7584 Fit      -0.014900
 7585 Fit      -0.011602
 7586 Fit      -0.008528
 7587 Fit      -0.006187
 7588 Fit      -0.004802
 7589 Fit       0.000257
 7590 Fit      -0.003777
 7591 Fit      -0.008412
 7592 Fit      -0.023126
 7593 Fit      -0.018043
 7594 Fit      -0.013183
 7595 Fit      -0.009339
 7596 Fit      -0.006606
 7597 Fit      -0.019744
 7598 Fit       0.007322
 7599 Fit       0.006730
 7600 Fit       0.006390
 7601 Fit       0.007696
 7602 Fit       0.008799
 7603 Fit       0.008140
 7604 Fit       0.005259
 7605 Fit       0.006191
 7606 Fit       0.007825
 7607 Fit       0.008905
 7608 Fit       0.007246
 7609 Fit       0.003824
 7610 Fit       0.004405
 7611 Fit       0.005699
 7612 Fit       0.007646
 7613 Fit       0.007785
 7614 Fit       0.006080
 7615 Fit       0.002003
 7616 Fit       0.002483
 7617 Fit       0.003736
 7618 Fit       0.005806
 7619 Fit       0.008597
 7620 Fit       0.006560
 7621 Fit      -0.000102
 7622 Fit      -0.000468
 7623 Fit       0.004550
 7624 Fit       0.009173
 7625 Fit       0.007010
 7626 Fit       0.004921
 7627 Fit       0.010395
 7628 Fit       0.007998
 7629 Fit       0.005675
 7630 Fit       0.003322
 7631 Fit       0.009083
 7632 Fit       0.006609
 7633 Fit       0.004184
 7634 Fit       0.001537
 7635 Fit       0.010074
 7636 Fit       0.009740
 7637 Fit       0.009378
 7638 Fit       0.010297
 7639 Fit       0.011108
 7640 Fit       0.010763
 7641 Fit       0.009252
 7642 Fit       0.010414
 7643 Fit       0.011586
 7644 Fit       0.012251
 7645 Fit       0.012200
 7646 Fit       0.011475
 7647 Fit       0.010349
 7648 Fit       0.009015
 7649 Fit       0.010446
 7650 Fit       0.011859
 7651 Fit       0.012916
 7652 Fit       0.013483
 7653 Fit       0.013542
 7654 Fit       0.013108
 7655 Fit       0.012230
 7656 Fit       0.011039
 7657 Fit       0.009771
 7658 Fit       0.007747
 7659 Fit       0.009503
 7660 Fit       0.011376
 7661 Fit       0.012950
 7662 Fit       0.014052
 7663 Fit       0.014691
 7664 Fit       0.014916
 7665 Fit       0.014749
 7666 Fit       0.014188
 7667 Fit       0.013244
 7668 Fit       0.011980
 7669 Fit       0.010538
 7670 Fit       0.011807
 7671 Fit       0.013764
 7672 Fit       0.015071
 7673 Fit       0.015853
 7674 Fit       0.016252
 7675 Fit       0.016340
 7676 Fit       0.016116
 7677 Fit       0.015544
 7678 Fit       0.014594
 7679 Fit       0.013280
 7680 Fit       0.011688
 7681 Fit       0.016602
 7682 Fit       0.017330
 7683 Fit       0.017709
 7684 Fit       0.017883
 7685 Fit       0.017870
 7686 Fit       0.017624
 7687 Fit       0.017073
 7688 Fit       0.016149
 7689 Fit       0.014818
 7690 Fit       0.013113
 7691 Fit       0.011163
 7692 Fit       0.019619
 7693 Fit       0.019627
 7694 Fit       0.019620
 7695 Fit       0.019499
 7696 Fit       0.019144
 7697 Fit       0.018423
 7698 Fit       0.017223
 7699 Fit       0.015478
 7700 Fit       0.013231
 7701 Fit       0.021700
 7702 Fit       0.021580
 7703 Fit       0.021558
 7704 Fit       0.021438
 7705 Fit       0.021028
 7706 Fit       0.020129
 7707 Fit       0.018559
 7708 Fit       0.023890
 7709 Fit       0.023827
 7710 Fit       0.023975
 7711 Fit       0.024046
 7712 Fit       0.023758
 7713 Fit       0.022804
 7714 Fit       0.026392
 7715 Fit       0.026859
 7716 Fit       0.027470
 7717 Fit       0.027814
 7718 Fit       0.029819
 7719 Fit       0.031273
 7720 Fit       0.006891
 7721 Fit       0.004395
 7722 Fit       0.001796
 7723 Fit       0.012488
 7724 Fit       0.009717
 7725 Fit       0.007329
 7726 Fit       0.005167
 7727 Fit       0.002918
 7728 Fit       0.000123
 7729 Fit       0.016881
 7730 Fit       0.013863
 7731 Fit       0.011200
 7732 Fit       0.008914
 7733 Fit       0.006940
 7734 Fit       0.005061
 7735 Fit       0.002860
 7736 Fit       0.018529
 7737 Fit       0.015739
 7738 Fit       0.013211
 7739 Fit       0.011028
 7740 Fit       0.009206
 7741 Fit       0.007647
 7742 Fit       0.006076
 7743 Fit       0.024017
 7744 Fit       0.021367
 7745 Fit       0.018723
 7746 Fit       0.016225
 7747 Fit       0.014013
 7748 Fit       0.012179
 7749 Fit       0.010734
 7750 Fit       0.009564
 7751 Fit       0.026898
 7752 Fit       0.024615
 7753 Fit       0.022183
 7754 Fit       0.019766
 7755 Fit       0.017538
 7756 Fit       0.015640
 7757 Fit       0.014161
 7758 Fit       0.013114
 7759 Fit       0.021950
 7760 Fit       0.019887
 7761 Fit       0.018185
 7762 Fit       0.016942
 7763 Fit       0.023326
 7764 Fit       0.021585
 7765 Fit       0.011193
 7766 Fit       0.002692
 7767 Fit       0.007576
 7768 Fit       0.013246
 7769 Fit       0.000898
 7770 Fit       0.002499
 7771 Fit       0.005748
 7772 Fit       0.010396
 7773 Fit       0.015910
 7774 Fit       0.006005
 7775 Fit       0.007470
 7776 Fit       0.010860
 7777 Fit       0.015600
 7778 Fit       0.020816
 7779 Fit       0.011229
 7780 Fit       0.013872
 7781 Fit       0.018437
 7782 Fit       0.031672
 7783 Fit       0.030064
 7784 Fit       0.028544
 7785 Fit       0.026961
 7786 Fit       0.025225
 7787 Fit       0.032806
 7788 Fit       0.031602
 7789 Fit       0.030645
 7790 Fit       0.029728
 7791 Fit       0.028737
 7792 Fit       0.027611
 7793 Fit       0.026326
 7794 Fit       0.024883
 7795 Fit       0.031393
 7796 Fit       0.031021
 7797 Fit       0.030718
 7798 Fit       0.030369
 7799 Fit       0.029914
 7800 Fit       0.029326
 7801 Fit       0.028604
 7802 Fit       0.027764
 7803 Fit       0.026838
 7804 Fit       0.029223
 7805 Fit       0.029815
 7806 Fit       0.030226
 7807 Fit       0.030470
 7808 Fit       0.030548
 7809 Fit       0.030469
 7810 Fit       0.030253
 7811 Fit       0.029933
 7812 Fit       0.029554
 7813 Fit       0.029170
 7814 Fit       0.026259
 7815 Fit       0.027984
 7816 Fit       0.029182
 7817 Fit       0.030021
 7818 Fit       0.030586
 7819 Fit       0.030939
 7820 Fit       0.031136
 7821 Fit       0.031245
 7822 Fit       0.031350
 7823 Fit       0.024800
 7824 Fit       0.027088
 7825 Fit       0.028733
 7826 Fit       0.029929
 7827 Fit       0.030805
 7828 Fit       0.031466
 7829 Fit       0.032022
 7830 Fit       0.032611
 7831 Fit       0.020819
 7832 Fit       0.024166
 7833 Fit       0.026675
 7834 Fit       0.028562
 7835 Fit       0.030002
 7836 Fit       0.031144
 7837 Fit       0.032136
 7838 Fit       0.033166
 7839 Fit       0.017191
 7840 Fit       0.021305
 7841 Fit       0.024593
 7842 Fit       0.027151
 7843 Fit       0.029147
 7844 Fit       0.030769
 7845 Fit       0.032234
 7846 Fit       0.018547
 7847 Fit       0.022295
 7848 Fit       0.025421
 7849 Fit       0.027952
 7850 Fit       0.030051
 7851 Fit       0.031981
 7852 Fit       0.018508
 7853 Fit       0.022138
 7854 Fit       0.025411
 7855 Fit       0.028190
 7856 Fit       0.020821
 7857 Fit       0.024317
 7858 Fit       0.027645
 -----------------------------------------------------------------
 Leave Link  602 at Wed Nov 29 18:31:31 2017, MaxMem=  2147483648 cpu:         1.1

 Test job not archived.
 1\1\GINC-CSN-003\FOpt\RHF\CEP-31G\C9H10I1N1O1\SONGLIN3\29-Nov-2017\0\\
 #HF/CEP-31G SCF=tight Test Pop=MK iop(6/33=2) iop(6/42=6) opt #Pop=Rea
 dRadii\\remark line goes here\\0,1\H,18.5969392441,-12.4374103922,20.1
 615035282\C,17.974518324,-12.1223389832,20.9953715752\H,18.4416257219,
 -11.2750241124,21.4916559444\H,17.906509212,-12.954297035,21.691825080
 6\C,16.5791599393,-11.8021897116,20.4725580395\O,15.8968504508,-12.659
 595315,19.8780680839\H,10.9172434739,-10.7320059138,23.9965479052\H,11
 .682000322,-12.6738123009,22.6532050357\C,11.6798344176,-10.6037315302
 ,23.2502054079\C,12.119417334,-11.7043415514,22.4837892972\I,11.602355
 2001,-7.6580624265,24.1552415548\C,12.2543058916,-9.3416781589,23.0153
 70156\C,13.1143122454,-11.5462538453,21.5030384321\H,13.4467037966,-12
 .3887570787,20.923700023\C,13.2519607043,-9.1675410645,22.0355147167\C
 ,13.6905318624,-10.2745221004,21.276915457\H,13.6755660333,-8.19404938
 7,21.8618218288\H,14.5430313268,-10.671281771,19.3377879065\C,14.78273
 18026,-10.0957884755,20.2222809309\H,14.8575659536,-9.0506404753,19.93
 76027842\N,16.1148459177,-10.5315564757,20.6810437272\H,16.668990826,-
 9.8911218956,21.207952585\\Version=ES64L-G09RevD.01\State=1-A\HF=-91.5
 986296\RMSD=9.603e-09\RMSF=6.782e-07\Dipole=1.0661543,0.6322409,0.3432
 235\Quadrupole=11.7937765,-6.0665765,-5.7272,5.4734926,-0.1811848,-9.5
 995155\PG=C01 [X(C9H10I1N1O1)]\\@


 MANHOOD BEGINS BY TRYING TO SHAVE FACE,
 AND ENDS BY TRYING TO SAVE FACE.
 Job cpu time:       0 days  0 hours  9 minutes 33.4 seconds.
 File lengths (MBytes):  RWF=    132 Int=      0 D2E=      0 Chk=      3 Scr=      2
 Normal termination of Gaussian 09 at Wed Nov 29 18:31:32 2017.
