 Entering Gaussian System, Link 0=g09
 Initial command:
 /opt/software/Gaussian/g09/l1.exe "/mnt/ls15/scratch/users/songlin3/Gau-23613.inp" -scrdir="/mnt/ls15/scratch/users/songlin3/"
 Entering Link 1 = /opt/software/Gaussian/g09/l1.exe PID=     23614.
  
 Copyright (c) 1988,1990,1992,1993,1995,1998,2003,2009,2013,
            Gaussian, Inc.  All Rights Reserved.
  
 This is part of the Gaussian(R) 09 program.  It is based on
 the Gaussian(R) 03 system (copyright 2003, Gaussian, Inc.),
 the Gaussian(R) 98 system (copyright 1998, Gaussian, Inc.),
 the Gaussian(R) 94 system (copyright 1995, Gaussian, Inc.),
 the Gaussian 92(TM) system (copyright 1992, Gaussian, Inc.),
 the Gaussian 90(TM) system (copyright 1990, Gaussian, Inc.),
 the Gaussian 88(TM) system (copyright 1988, Gaussian, Inc.),
 the Gaussian 86(TM) system (copyright 1986, Carnegie Mellon
 University), and the Gaussian 82(TM) system (copyright 1983,
 Carnegie Mellon University). Gaussian is a federally registered
 trademark of Gaussian, Inc.
  
 This software contains proprietary and confidential information,
 including trade secrets, belonging to Gaussian, Inc.
  
 This software is provided under written license and may be
 used, copied, transmitted, or stored only in accord with that
 written license.
  
 The following legend is applicable only to US Government
 contracts under FAR:
  
                    RESTRICTED RIGHTS LEGEND
  
 Use, reproduction and disclosure by the US Government is
 subject to restrictions as set forth in subparagraphs (a)
 and (c) of the Commercial Computer Software - Restricted
 Rights clause in FAR 52.227-19.
  
 Gaussian, Inc.
 340 Quinnipiac St., Bldg. 40, Wallingford CT 06492
  
  
 ---------------------------------------------------------------
 Warning -- This program may not be used in any manner that
 competes with the business of Gaussian, Inc. or will provide
 assistance to any competitor of Gaussian, Inc.  The licensee
 of this program is prohibited from giving any competitor of
 Gaussian, Inc. access to this program.  By using this program,
 the user acknowledges that Gaussian, Inc. is engaged in the
 business of creating and licensing software in the field of
 computational chemistry and represents and warrants to the
 licensee that it is not a competitor of Gaussian, Inc. and that
 it will not use this program in any manner prohibited above.
 ---------------------------------------------------------------
  

 Cite this work as:
 Gaussian 09, Revision D.01,
 M. J. Frisch, G. W. Trucks, H. B. Schlegel, G. E. Scuseria, 
 M. A. Robb, J. R. Cheeseman, G. Scalmani, V. Barone, B. Mennucci, 
 G. A. Petersson, H. Nakatsuji, M. Caricato, X. Li, H. P. Hratchian, 
 A. F. Izmaylov, J. Bloino, G. Zheng, J. L. Sonnenberg, M. Hada, 
 M. Ehara, K. Toyota, R. Fukuda, J. Hasegawa, M. Ishida, T. Nakajima, 
 Y. Honda, O. Kitao, H. Nakai, T. Vreven, J. A. Montgomery, Jr., 
 J. E. Peralta, F. Ogliaro, M. Bearpark, J. J. Heyd, E. Brothers, 
 K. N. Kudin, V. N. Staroverov, T. Keith, R. Kobayashi, J. Normand, 
 K. Raghavachari, A. Rendell, J. C. Burant, S. S. Iyengar, J. Tomasi, 
 M. Cossi, N. Rega, J. M. Millam, M. Klene, J. E. Knox, J. B. Cross, 
 V. Bakken, C. Adamo, J. Jaramillo, R. Gomperts, R. E. Stratmann, 
 O. Yazyev, A. J. Austin, R. Cammi, C. Pomelli, J. W. Ochterski, 
 R. L. Martin, K. Morokuma, V. G. Zakrzewski, G. A. Voth, 
 P. Salvador, J. J. Dannenberg, S. Dapprich, A. D. Daniels, 
 O. Farkas, J. B. Foresman, J. V. Ortiz, J. Cioslowski, 
 and D. J. Fox, Gaussian, Inc., Wallingford CT, 2013.
 
 ******************************************
 Gaussian 09:  ES64L-G09RevD.01 24-Apr-2013
                29-Nov-2017 
 ******************************************
 %RWF=myrwf
 %NoSave
 %chk=esp.chk
 %NprocShared=4
 Will use up to    4 processors via shared memory.
 %Mem=16GB
 ----------------------------------------------------------------------
 #HF/6-31G* SCF=tight Test Pop=MK iop(6/33=2) iop(6/42=6) opt # iop(6/5
 0=1)
 ----------------------------------------------------------------------
 1/18=20,19=15,38=1/1,3;
 2/9=110,12=2,17=6,18=5,40=1/2;
 3/5=1,6=6,7=1,11=9,16=1,25=1,30=1,71=1/1,2,3;
 4//1;
 5/5=2,32=2,38=5/2;
 6/7=2,8=2,9=2,10=2,15=8,20=1,28=1,33=2,42=6,50=1/1,2;
 7//1,2,3,16;
 1/18=20,19=15/3(2);
 2/9=110/2;
 99//99;
 2/9=110/2;
 3/5=1,6=6,7=1,11=9,16=1,25=1,30=1,71=1/1,2,3;
 4/5=5,16=3,69=1/1;
 5/5=2,32=2,38=5/2;
 7//1,2,3,16;
 1/18=20,19=15/3(-5);
 2/9=110/2;
 6/7=2,8=2,9=2,10=2,15=8,19=2,20=1,28=1,33=2,42=6,50=1/1,2;
 99/9=1/99;
 ---------------------
 remark line goes here
 ---------------------
 Symbolic Z-matrix:
 Charge =  0 Multiplicity = 1
 H                     5.03652  -0.63413  -1.21623 
 C                     3.99824  -0.92829  -1.2727 
 H                     3.92287  -2.00927  -1.24813 
 H                     3.59617  -0.57723  -2.2182 
 C                     3.24064  -0.26394  -0.14226 
 O                     3.58327   0.79506   0.31071 
 H                     1.78018   0.33192   1.85566 
 H                     0.93916  -1.19604   1.95207 
 C                     1.23043  -0.39689   1.28027 
 N                     2.1543   -0.94108   0.30083 
 H                     1.85807  -1.73938  -0.21324 
 H                    -3.78054  -1.07148   1.24307 
 H                    -3.13983   1.82739  -0.91411 
 C                    -3.7178   -0.54754   0.29379 
 C                    -2.26785   1.37344  -0.47511 
 H                    -4.52049   0.18359   0.29216 
 H                    -3.17228  -2.31052  -0.85475 
 H                    -0.96388   2.94669  -1.09943 
 H                    -4.90466  -2.03678  -0.75006 
 C                    -2.38606   0.1673    0.19841 
 C                    -3.94168  -1.54485  -0.84938 
 C                    -1.03728   2.00692  -0.58107 
 C                    -1.23938  -0.38695   0.7635 
 C                     0.09067   1.44416  -0.01594 
 H                    -3.9165   -1.04426  -1.81194 
 H                    -1.31971  -1.31902   1.29926 
 H                     1.04244   1.93905  -0.09053 
 C                    -0.0039    0.23273   0.66431 
 

 GradGradGradGradGradGradGradGradGradGradGradGradGradGradGradGradGradGrad
 Berny optimization.
 Initialization pass.
                           ----------------------------
                           !    Initial Parameters    !
                           ! (Angstroms and Degrees)  !
 --------------------------                            --------------------------
 ! Name  Definition              Value          Derivative Info.                !
 --------------------------------------------------------------------------------
 ! R1    R(1,2)                  1.0806         estimate D2E/DX2                !
 ! R2    R(2,3)                  1.0839         estimate D2E/DX2                !
 ! R3    R(2,4)                  1.0858         estimate D2E/DX2                !
 ! R4    R(2,5)                  1.5143         estimate D2E/DX2                !
 ! R5    R(5,6)                  1.2017         estimate D2E/DX2                !
 ! R6    R(5,10)                 1.3546         estimate D2E/DX2                !
 ! R7    R(7,9)                  1.0791         estimate D2E/DX2                !
 ! R8    R(8,9)                  1.0839         estimate D2E/DX2                !
 ! R9    R(9,10)                 1.4522         estimate D2E/DX2                !
 ! R10   R(9,28)                 1.5164         estimate D2E/DX2                !
 ! R11   R(10,11)                0.9946         estimate D2E/DX2                !
 ! R12   R(12,14)                1.0861         estimate D2E/DX2                !
 ! R13   R(13,15)                1.0766         estimate D2E/DX2                !
 ! R14   R(14,16)                1.0858         estimate D2E/DX2                !
 ! R15   R(14,20)                1.5145         estimate D2E/DX2                !
 ! R16   R(14,21)                1.5335         estimate D2E/DX2                !
 ! R17   R(15,20)                1.3865         estimate D2E/DX2                !
 ! R18   R(15,22)                1.3881         estimate D2E/DX2                !
 ! R19   R(17,21)                1.0855         estimate D2E/DX2                !
 ! R20   R(18,22)                1.0758         estimate D2E/DX2                !
 ! R21   R(19,21)                1.0859         estimate D2E/DX2                !
 ! R22   R(20,23)                1.3933         estimate D2E/DX2                !
 ! R23   R(21,25)                1.0852         estimate D2E/DX2                !
 ! R24   R(22,24)                1.3814         estimate D2E/DX2                !
 ! R25   R(23,26)                1.0781         estimate D2E/DX2                !
 ! R26   R(23,28)                1.3857         estimate D2E/DX2                !
 ! R27   R(24,27)                1.0753         estimate D2E/DX2                !
 ! R28   R(24,28)                1.3926         estimate D2E/DX2                !
 ! A1    A(1,2,3)              109.7015         estimate D2E/DX2                !
 ! A2    A(1,2,4)              108.2579         estimate D2E/DX2                !
 ! A3    A(1,2,5)              108.799          estimate D2E/DX2                !
 ! A4    A(3,2,4)              108.449          estimate D2E/DX2                !
 ! A5    A(3,2,5)              112.6942         estimate D2E/DX2                !
 ! A6    A(4,2,5)              108.8413         estimate D2E/DX2                !
 ! A7    A(2,5,6)              121.6921         estimate D2E/DX2                !
 ! A8    A(2,5,10)             115.2195         estimate D2E/DX2                !
 ! A9    A(6,5,10)             123.0847         estimate D2E/DX2                !
 ! A10   A(7,9,8)              107.7207         estimate D2E/DX2                !
 ! A11   A(7,9,10)             106.7748         estimate D2E/DX2                !
 ! A12   A(7,9,28)             110.5397         estimate D2E/DX2                !
 ! A13   A(8,9,10)             108.2214         estimate D2E/DX2                !
 ! A14   A(8,9,28)             109.826          estimate D2E/DX2                !
 ! A15   A(10,9,28)            113.5454         estimate D2E/DX2                !
 ! A16   A(5,10,9)             122.9202         estimate D2E/DX2                !
 ! A17   A(5,10,11)            118.098          estimate D2E/DX2                !
 ! A18   A(9,10,11)            117.3789         estimate D2E/DX2                !
 ! A19   A(12,14,16)           106.4667         estimate D2E/DX2                !
 ! A20   A(12,14,20)           109.4837         estimate D2E/DX2                !
 ! A21   A(12,14,21)           109.2322         estimate D2E/DX2                !
 ! A22   A(16,14,20)           109.4001         estimate D2E/DX2                !
 ! A23   A(16,14,21)           109.2012         estimate D2E/DX2                !
 ! A24   A(20,14,21)           112.8547         estimate D2E/DX2                !
 ! A25   A(13,15,20)           119.7236         estimate D2E/DX2                !
 ! A26   A(13,15,22)           119.6329         estimate D2E/DX2                !
 ! A27   A(20,15,22)           120.6419         estimate D2E/DX2                !
 ! A28   A(14,20,15)           121.0758         estimate D2E/DX2                !
 ! A29   A(14,20,23)           120.6892         estimate D2E/DX2                !
 ! A30   A(15,20,23)           118.2216         estimate D2E/DX2                !
 ! A31   A(14,21,17)           111.0355         estimate D2E/DX2                !
 ! A32   A(14,21,19)           110.8486         estimate D2E/DX2                !
 ! A33   A(14,21,25)           110.9668         estimate D2E/DX2                !
 ! A34   A(17,21,19)           108.0281         estimate D2E/DX2                !
 ! A35   A(17,21,25)           107.7303         estimate D2E/DX2                !
 ! A36   A(19,21,25)           108.0994         estimate D2E/DX2                !
 ! A37   A(15,22,18)           119.7326         estimate D2E/DX2                !
 ! A38   A(15,22,24)           120.4443         estimate D2E/DX2                !
 ! A39   A(18,22,24)           119.8209         estimate D2E/DX2                !
 ! A40   A(20,23,26)           118.9561         estimate D2E/DX2                !
 ! A41   A(20,23,28)           121.7917         estimate D2E/DX2                !
 ! A42   A(26,23,28)           119.25           estimate D2E/DX2                !
 ! A43   A(22,24,27)           120.4527         estimate D2E/DX2                !
 ! A44   A(22,24,28)           119.9191         estimate D2E/DX2                !
 ! A45   A(27,24,28)           119.6264         estimate D2E/DX2                !
 ! A46   A(9,28,23)            120.7299         estimate D2E/DX2                !
 ! A47   A(9,28,24)            120.2884         estimate D2E/DX2                !
 ! A48   A(23,28,24)           118.9812         estimate D2E/DX2                !
 ! D1    D(1,2,5,6)             29.2428         estimate D2E/DX2                !
 ! D2    D(1,2,5,10)          -151.4395         estimate D2E/DX2                !
 ! D3    D(3,2,5,6)            151.1374         estimate D2E/DX2                !
 ! D4    D(3,2,5,10)           -29.545          estimate D2E/DX2                !
 ! D5    D(4,2,5,6)            -88.5221         estimate D2E/DX2                !
 ! D6    D(4,2,5,10)            90.7955         estimate D2E/DX2                !
 ! D7    D(2,5,10,9)          -173.5168         estimate D2E/DX2                !
 ! D8    D(2,5,10,11)           -8.3445         estimate D2E/DX2                !
 ! D9    D(6,5,10,9)             5.7902         estimate D2E/DX2                !
 ! D10   D(6,5,10,11)          170.9626         estimate D2E/DX2                !
 ! D11   D(7,9,10,5)           -24.9674         estimate D2E/DX2                !
 ! D12   D(7,9,10,11)          169.7605         estimate D2E/DX2                !
 ! D13   D(8,9,10,5)          -140.684          estimate D2E/DX2                !
 ! D14   D(8,9,10,11)           54.0439         estimate D2E/DX2                !
 ! D15   D(28,9,10,5)           97.1112         estimate D2E/DX2                !
 ! D16   D(28,9,10,11)         -68.1609         estimate D2E/DX2                !
 ! D17   D(7,9,28,23)         -132.016          estimate D2E/DX2                !
 ! D18   D(7,9,28,24)           48.2328         estimate D2E/DX2                !
 ! D19   D(8,9,28,23)          -13.2912         estimate D2E/DX2                !
 ! D20   D(8,9,28,24)          166.9576         estimate D2E/DX2                !
 ! D21   D(10,9,28,23)         108.0198         estimate D2E/DX2                !
 ! D22   D(10,9,28,24)         -71.7315         estimate D2E/DX2                !
 ! D23   D(12,14,20,15)       -146.9772         estimate D2E/DX2                !
 ! D24   D(12,14,20,23)         34.3811         estimate D2E/DX2                !
 ! D25   D(16,14,20,15)        -30.6582         estimate D2E/DX2                !
 ! D26   D(16,14,20,23)        150.7001         estimate D2E/DX2                !
 ! D27   D(21,14,20,15)         91.1326         estimate D2E/DX2                !
 ! D28   D(21,14,20,23)        -87.5091         estimate D2E/DX2                !
 ! D29   D(12,14,21,17)        -62.0347         estimate D2E/DX2                !
 ! D30   D(12,14,21,19)         58.0495         estimate D2E/DX2                !
 ! D31   D(12,14,21,25)        178.1779         estimate D2E/DX2                !
 ! D32   D(16,14,21,17)       -178.0999         estimate D2E/DX2                !
 ! D33   D(16,14,21,19)        -58.0157         estimate D2E/DX2                !
 ! D34   D(16,14,21,25)         62.1127         estimate D2E/DX2                !
 ! D35   D(20,14,21,17)         59.9972         estimate D2E/DX2                !
 ! D36   D(20,14,21,19)       -179.9187         estimate D2E/DX2                !
 ! D37   D(20,14,21,25)        -59.7903         estimate D2E/DX2                !
 ! D38   D(13,15,20,14)          1.8226         estimate D2E/DX2                !
 ! D39   D(13,15,20,23)       -179.5031         estimate D2E/DX2                !
 ! D40   D(22,15,20,14)       -178.6372         estimate D2E/DX2                !
 ! D41   D(22,15,20,23)          0.0371         estimate D2E/DX2                !
 ! D42   D(13,15,22,18)          0.0825         estimate D2E/DX2                !
 ! D43   D(13,15,22,24)        179.5404         estimate D2E/DX2                !
 ! D44   D(20,15,22,18)       -179.4581         estimate D2E/DX2                !
 ! D45   D(20,15,22,24)         -0.0002         estimate D2E/DX2                !
 ! D46   D(14,20,23,26)         -1.9894         estimate D2E/DX2                !
 ! D47   D(14,20,23,28)        178.5481         estimate D2E/DX2                !
 ! D48   D(15,20,23,26)        179.3309         estimate D2E/DX2                !
 ! D49   D(15,20,23,28)         -0.1316         estimate D2E/DX2                !
 ! D50   D(15,22,24,27)       -179.462          estimate D2E/DX2                !
 ! D51   D(15,22,24,28)          0.0543         estimate D2E/DX2                !
 ! D52   D(18,22,24,27)         -0.0046         estimate D2E/DX2                !
 ! D53   D(18,22,24,28)        179.5116         estimate D2E/DX2                !
 ! D54   D(20,23,28,9)        -179.5689         estimate D2E/DX2                !
 ! D55   D(20,23,28,24)          0.1855         estimate D2E/DX2                !
 ! D56   D(26,23,28,9)           0.9701         estimate D2E/DX2                !
 ! D57   D(26,23,28,24)       -179.2755         estimate D2E/DX2                !
 ! D58   D(22,24,28,9)         179.6113         estimate D2E/DX2                !
 ! D59   D(22,24,28,23)         -0.1442         estimate D2E/DX2                !
 ! D60   D(27,24,28,9)          -0.8684         estimate D2E/DX2                !
 ! D61   D(27,24,28,23)        179.376          estimate D2E/DX2                !
 --------------------------------------------------------------------------------
 Trust Radius=3.00D-01 FncErr=1.00D-07 GrdErr=1.00D-07
 Number of steps in this run=    147 maximum allowed number of steps=    168.
 GradGradGradGradGradGradGradGradGradGradGradGradGradGradGradGradGradGrad

                          Input orientation:                          
 ---------------------------------------------------------------------
 Center     Atomic      Atomic             Coordinates (Angstroms)
 Number     Number       Type             X           Y           Z
 ---------------------------------------------------------------------
      1          1           0        5.036518   -0.634125   -1.216233
      2          6           0        3.998244   -0.928289   -1.272704
      3          1           0        3.922871   -2.009265   -1.248129
      4          1           0        3.596171   -0.577227   -2.218201
      5          6           0        3.240641   -0.263943   -0.142259
      6          8           0        3.583272    0.795064    0.310712
      7          1           0        1.780176    0.331921    1.855664
      8          1           0        0.939164   -1.196038    1.952066
      9          6           0        1.230431   -0.396890    1.280270
     10          7           0        2.154298   -0.941082    0.300833
     11          1           0        1.858074   -1.739382   -0.213242
     12          1           0       -3.780536   -1.071483    1.243074
     13          1           0       -3.139825    1.827391   -0.914114
     14          6           0       -3.717804   -0.547537    0.293790
     15          6           0       -2.267846    1.373436   -0.475105
     16          1           0       -4.520494    0.183588    0.292162
     17          1           0       -3.172281   -2.310516   -0.854745
     18          1           0       -0.963878    2.946691   -1.099428
     19          1           0       -4.904663   -2.036778   -0.750057
     20          6           0       -2.386059    0.167297    0.198406
     21          6           0       -3.941682   -1.544847   -0.849381
     22          6           0       -1.037280    2.006921   -0.581072
     23          6           0       -1.239383   -0.386945    0.763498
     24          6           0        0.090669    1.444157   -0.015943
     25          1           0       -3.916499   -1.044265   -1.811936
     26          1           0       -1.319712   -1.319019    1.299260
     27          1           0        1.042440    1.939048   -0.090529
     28          6           0       -0.003897    0.232727    0.664310
 ---------------------------------------------------------------------
                    Distance matrix (angstroms):
                    1          2          3          4          5
     1  H    0.000000
     2  C    1.080618   0.000000
     3  H    1.769813   1.083879   0.000000
     4  H    1.755499   1.085759   1.760257   0.000000
     5  C    2.125001   1.514339   2.175899   2.129339   0.000000
     6  O    2.546776   2.376837   3.226387   2.877282   1.201697
     7  H    4.579690   4.036662   4.439124   4.552007   2.545527
     8  H    5.209815   4.452954   4.450291   4.983346   3.248353
     9  C    4.557972   3.802742   4.030110   4.227120   2.466213
    10  N    3.271529   2.424112   2.582276   2.925221   1.354618
    11  H    3.511423   2.522035   2.325342   2.896799   2.023228
    12  H    9.164056   8.176739   8.150338   8.163364   7.201958
    13  H    8.544175   7.659921   8.044450   7.270246   6.758682
    14  C    8.884021   7.882656   7.930579   7.733383   6.977859
    15  C    7.611393   6.722945   7.096845   6.421072   5.756320
    16  H    9.709809   8.732352   8.858415   8.530007   7.786156
    17  H    8.386021   7.314484   7.112432   7.118655   6.769170
    18  H    6.988608   6.298266   6.961604   5.870579   5.376088
    19  H   10.050464   8.986860   8.841617   8.749281   8.358130
    20  C    7.598561   6.642575   6.828798   6.494719   5.653474
    21  C    9.031726   7.975072   7.888338   7.721994   7.329836
    22  C    6.653539   5.869439   6.416994   5.552196   4.863125
    23  C    6.585390   5.645521   5.772992   5.684129   4.572323
    24  C    5.497397   4.741001   5.303789   4.607003   3.585510
    25  H    8.982182   7.933938   7.918638   7.538129   7.390628
    26  H    6.870112   5.920163   5.869438   6.090049   4.897753
    27  H    4.882734   4.284383   5.022559   4.168953   3.112544
    28  C    5.449189   4.595336   4.909527   4.682455   3.379980
                    6          7          8          9         10
     6  O    0.000000
     7  H    2.419201   0.000000
     8  H    3.694569   1.746784   0.000000
     9  C    2.810099   1.079103   1.083874   0.000000
    10  N    2.248615   2.044016   2.065944   1.452230   0.000000
    11  H    3.110346   2.928607   2.414162   2.103996   0.994638
    12  H    7.653690   5.767697   4.774280   5.056308   6.010580
    13  H    6.911290   5.840763   5.830460   5.372326   6.096579
    14  C    7.423515   5.782792   4.985758   5.047858   5.885279
    15  C    5.931914   4.785783   4.772658   4.295735   5.051181
    16  H    8.126824   6.493457   5.870819   5.863996   6.768885
    17  H    7.525983   6.233428   5.101395   5.253963   5.619889
    18  H    5.224420   4.806186   5.485926   4.653761   5.176730
    19  H    9.010527   7.555633   6.492967   6.667146   7.220377
    20  C    6.003300   4.486772   3.998889   3.816770   4.674809
    21  C    7.965295   6.601453   5.638478   5.709989   6.232856
    22  C    4.859360   4.084283   4.536746   3.792811   4.433356
    23  C    4.985997   3.290491   2.610248   2.523318   3.469611
    24  C    3.567394   2.755797   3.400534   2.523624   3.169902
    25  H    8.008454   6.913558   6.145585   6.039182   6.428765
    26  H    5.430085   3.555910   2.354528   2.711810   3.634342
    27  H    2.815230   2.629597   3.743210   2.714965   3.112000
    28  C    3.648155   2.147575   2.142207   1.516374   2.483495
                   11         12         13         14         15
    11  H    0.000000
    12  H    5.861814   0.000000
    13  H    6.179975   3.669801   0.000000
    14  C    5.724333   1.086092   2.726422   0.000000
    15  C    5.175077   3.349328   1.076639   2.526601   0.000000
    16  H    6.681271   1.739820   2.462405   1.085752   2.660613
    17  H    5.103155   2.511179   4.138460   2.173666   3.812300
    18  H    5.541482   5.437518   2.453960   4.662059   2.136643
    19  H    6.790525   2.483551   4.251279   2.171656   4.319486
    20  C    4.670925   2.137867   2.135831   1.514474   1.386493
    21  C    5.837781   2.151374   3.466865   1.533489   3.384994
    22  C    4.749017   4.508828   2.136315   3.804714   1.388101
    23  C    3.518145   2.675078   3.365909   2.527644   2.385543
    24  C    3.646583   4.785373   3.374859   4.308973   2.403835
    25  H    6.031973   3.058155   3.107365   2.172625   3.217212
    26  H    3.544389   2.473881   4.255788   2.712379   3.361048
    27  H    3.769770   5.839768   4.264047   5.384304   3.380208
    28  C    2.850657   4.037194   3.855959   3.813031   2.779379
                   16         17         18         19         20
    16  H    0.000000
    17  H    3.058370   0.000000
    18  H    4.713892   5.707463   0.000000
    19  H    2.482706   1.756997   6.362925   0.000000
    20  C    2.136555   2.804787   3.381125   3.478634   0.000000
    21  C    2.150728   1.085475   5.394790   1.085907   2.539539
    22  C    4.027389   4.824250   1.075755   5.597920   2.410603
    23  C    3.363533   3.170951   3.828776   4.295006   1.393334
    24  C    4.790280   5.044601   2.131576   6.132632   2.794727
    25  H    2.509913   1.753131   5.015313   1.757594   2.802071
    26  H    3.676558   3.009122   4.906792   4.191271   2.134973
    27  H    5.845881   6.033796   2.461409   7.184024   3.870038
    28  C    4.532169   4.337542   3.376083   5.582884   2.428177
                   21         22         23         24         25
    21  C    0.000000
    22  C    4.595933   0.000000
    23  C    3.353287   2.753054   0.000000
    24  C    5.088086   1.381428   2.393638   0.000000
    25  H    1.085232   4.372032   3.772516   5.047299   0.000000
    26  H    3.397408   3.831096   1.078080   3.369581   4.061814
    27  H    6.128201   2.137867   3.368430   1.075336   6.037754
    28  C    4.577901   2.401379   1.385733   1.392569   4.803224
                   26         27         28
    26  H    0.000000
    27  H    4.257496   0.000000
    28  C    2.131302   2.139190   0.000000
 Stoichiometry    C11H15NO
 Framework group  C1[X(C11H15NO)]
 Deg. of freedom    78
 Full point group                 C1      NOp   1
 Largest Abelian subgroup         C1      NOp   1
 Largest concise Abelian subgroup C1      NOp   1
                         Standard orientation:                         
 ---------------------------------------------------------------------
 Center     Atomic      Atomic             Coordinates (Angstroms)
 Number     Number       Type             X           Y           Z
 ---------------------------------------------------------------------
      1          1           0       -5.036518   -0.634125    1.216233
      2          6           0       -3.998244   -0.928289    1.272704
      3          1           0       -3.922871   -2.009265    1.248129
      4          1           0       -3.596171   -0.577227    2.218201
      5          6           0       -3.240641   -0.263943    0.142259
      6          8           0       -3.583272    0.795064   -0.310712
      7          1           0       -1.780176    0.331921   -1.855664
      8          1           0       -0.939164   -1.196038   -1.952066
      9          6           0       -1.230431   -0.396890   -1.280270
     10          7           0       -2.154298   -0.941082   -0.300833
     11          1           0       -1.858074   -1.739382    0.213242
     12          1           0        3.780536   -1.071483   -1.243074
     13          1           0        3.139825    1.827391    0.914114
     14          6           0        3.717804   -0.547537   -0.293790
     15          6           0        2.267846    1.373436    0.475105
     16          1           0        4.520494    0.183588   -0.292162
     17          1           0        3.172281   -2.310516    0.854745
     18          1           0        0.963878    2.946691    1.099428
     19          1           0        4.904663   -2.036778    0.750057
     20          6           0        2.386059    0.167297   -0.198406
     21          6           0        3.941682   -1.544847    0.849381
     22          6           0        1.037280    2.006921    0.581072
     23          6           0        1.239383   -0.386945   -0.763498
     24          6           0       -0.090669    1.444157    0.015943
     25          1           0        3.916499   -1.044265    1.811936
     26          1           0        1.319712   -1.319019   -1.299260
     27          1           0       -1.042440    1.939048    0.090529
     28          6           0        0.003897    0.232727   -0.664310
 ---------------------------------------------------------------------
 Rotational constants (GHZ):      1.6737564      0.3670685      0.3402364
 Standard basis: 6-31G(d) (6D, 7F)
 There are   225 symmetry adapted cartesian basis functions of A   symmetry.
 There are   225 symmetry adapted basis functions of A   symmetry.
   225 basis functions,   424 primitive gaussians,   225 cartesian basis functions
    48 alpha electrons       48 beta electrons
       nuclear repulsion energy       756.2971841566 Hartrees.
 NAtoms=   28 NActive=   28 NUniq=   28 SFac= 1.00D+00 NAtFMM=   60 NAOKFM=F Big=F
 Integral buffers will be    131072 words long.
 Raffenetti 1 integral format.
 Two-electron integral symmetry is turned on.
 One-electron integrals computed using PRISM.
 NBasis=   225 RedAO= T EigKep=  3.94D-04  NBF=   225
 NBsUse=   225 1.00D-06 EigRej= -1.00D+00 NBFU=   225
 ExpMin= 1.61D-01 ExpMax= 5.48D+03 ExpMxC= 8.25D+02 IAcc=1 IRadAn=         1 AccDes= 0.00D+00
 Harris functional with IExCor=  205 and IRadAn=       1 diagonalized for initial guess.
 HarFok:  IExCor=  205 AccDes= 0.00D+00 IRadAn=         1 IDoV= 1 UseB2=F ITyADJ=14
 ICtDFT=  3500011 ScaDFX=  1.000000  1.000000  1.000000  1.000000
 FoFCou: FMM=F IPFlag=           0 FMFlag=      100000 FMFlg1=           0
         NFxFlg=           0 DoJE=T BraDBF=F KetDBF=T FulRan=T
         wScrn=  0.000000 ICntrl=     500 IOpCl=  0 I1Cent=   200000004 NGrid=           0
         NMat0=    1 NMatS0=      1 NMatT0=    0 NMatD0=    1 NMtDS0=    0 NMtDT0=    0
 Petite list used in FoFCou.
 Keep R1 ints in memory in canonical form, NReq=329172988.
 Requested convergence on RMS density matrix=1.00D-08 within 128 cycles.
 Requested convergence on MAX density matrix=1.00D-06.
 Requested convergence on             energy=1.00D-06.
 No special actions if energy rises.
 SCF Done:  E(RHF) =  -554.626296769     A.U. after   15 cycles
            NFock= 15  Conv=0.39D-08     -V/T= 2.0011

 **********************************************************************

            Population analysis using the SCF density.

 **********************************************************************

 Orbital symmetries:
 BldTbl:  Degeneracy threshold= 1.00D-02
       Occupied  (A) (A) (A) (A) (A) (A) (A) (A) (A) (A) (A) (A)
                 (A) (A) (A) (A) (A) (A) (A) (A) (A) (A) (A) (A)
                 (A) (A) (A) (A) (A) (A) (A) (A) (A) (A) (A) (A)
                 (A) (A) (A) (A) (A) (A) (A) (A) (A) (A) (A) (A)
       Virtual   (A) (A) (A) (A) (A) (A) (A) (A) (A) (A) (A) (A)
                 (A) (A) (A) (A) (A) (A) (A) (A) (A) (A) (A) (A)
                 (A) (A) (A) (A) (A) (A) (A) (A) (A) (A) (A) (A)
                 (A) (A) (A) (A) (A) (A) (A) (A) (A) (A) (A) (A)
                 (A) (A) (A) (A) (A) (A) (A) (A) (A) (A) (A) (A)
                 (A) (A) (A) (A) (A) (A) (A) (A) (A) (A) (A) (A)
                 (A) (A) (A) (A) (A) (A) (A) (A) (A) (A) (A) (A)
                 (A) (A) (A) (A) (A) (A) (A) (A) (A) (A) (A) (A)
                 (A) (A) (A) (A) (A) (A) (A) (A) (A) (A) (A) (A)
                 (A) (A) (A) (A) (A) (A) (A) (A) (A) (A) (A) (A)
                 (A) (A) (A) (A) (A) (A) (A) (A) (A) (A) (A) (A)
                 (A) (A) (A) (A) (A) (A) (A) (A) (A) (A) (A) (A)
                 (A) (A) (A) (A) (A) (A) (A) (A) (A) (A) (A) (A)
                 (A) (A) (A) (A) (A) (A) (A) (A) (A) (A) (A) (A)
                 (A) (A) (A) (A) (A) (A) (A) (A) (A)
 The electronic state is 1-A.
 Alpha  occ. eigenvalues --  -20.51808 -15.58289 -11.34560 -11.26360 -11.23530
 Alpha  occ. eigenvalues --  -11.23464 -11.23084 -11.22795 -11.22760 -11.22595
 Alpha  occ. eigenvalues --  -11.22416 -11.22087 -11.21667  -1.38641  -1.23380
 Alpha  occ. eigenvalues --   -1.15582  -1.06816  -1.03716  -1.00242  -0.98402
 Alpha  occ. eigenvalues --   -0.92395  -0.86588  -0.81727  -0.78786  -0.78003
 Alpha  occ. eigenvalues --   -0.69285  -0.68376  -0.65324  -0.64749  -0.63348
 Alpha  occ. eigenvalues --   -0.61391  -0.59589  -0.58765  -0.57788  -0.57580
 Alpha  occ. eigenvalues --   -0.55850  -0.54595  -0.53734  -0.52113  -0.51730
 Alpha  occ. eigenvalues --   -0.49750  -0.48279  -0.47744  -0.46844  -0.41638
 Alpha  occ. eigenvalues --   -0.38734  -0.32938  -0.31809
 Alpha virt. eigenvalues --    0.14202   0.14705   0.20707   0.22142   0.23790
 Alpha virt. eigenvalues --    0.26545   0.26654   0.28569   0.29664   0.29782
 Alpha virt. eigenvalues --    0.30673   0.30818   0.32427   0.33450   0.33855
 Alpha virt. eigenvalues --    0.34034   0.35479   0.35693   0.35914   0.40042
 Alpha virt. eigenvalues --    0.42032   0.43243   0.43954   0.45325   0.48798
 Alpha virt. eigenvalues --    0.51776   0.51928   0.54635   0.57653   0.59857
 Alpha virt. eigenvalues --    0.62611   0.70930   0.72283   0.72383   0.73305
 Alpha virt. eigenvalues --    0.74778   0.75418   0.76399   0.77146   0.78500
 Alpha virt. eigenvalues --    0.79963   0.82312   0.82735   0.83538   0.84373
 Alpha virt. eigenvalues --    0.84980   0.85985   0.86822   0.88954   0.90040
 Alpha virt. eigenvalues --    0.92011   0.94047   0.95299   0.97136   0.99255
 Alpha virt. eigenvalues --    1.00494   1.02712   1.04550   1.06165   1.08073
 Alpha virt. eigenvalues --    1.08612   1.10531   1.11588   1.12092   1.12968
 Alpha virt. eigenvalues --    1.13913   1.15654   1.16090   1.16941   1.18051
 Alpha virt. eigenvalues --    1.18403   1.18922   1.20541   1.21207   1.21913
 Alpha virt. eigenvalues --    1.22966   1.23439   1.24656   1.25034   1.27156
 Alpha virt. eigenvalues --    1.28702   1.32720   1.35218   1.39518   1.40295
 Alpha virt. eigenvalues --    1.41812   1.44563   1.45614   1.50306   1.51665
 Alpha virt. eigenvalues --    1.55403   1.59179   1.61200   1.63359   1.67213
 Alpha virt. eigenvalues --    1.69451   1.70046   1.73097   1.74978   1.77091
 Alpha virt. eigenvalues --    1.78156   1.78713   1.79891   1.83256   1.90287
 Alpha virt. eigenvalues --    1.95660   1.99055   2.02717   2.04398   2.05189
 Alpha virt. eigenvalues --    2.10304   2.12101   2.13388   2.14395   2.15184
 Alpha virt. eigenvalues --    2.19135   2.20322   2.21235   2.25912   2.26613
 Alpha virt. eigenvalues --    2.26853   2.30936   2.32252   2.32375   2.34387
 Alpha virt. eigenvalues --    2.38982   2.41184   2.42411   2.44879   2.49824
 Alpha virt. eigenvalues --    2.50871   2.53262   2.53317   2.56652   2.58203
 Alpha virt. eigenvalues --    2.60250   2.62876   2.65317   2.66025   2.68096
 Alpha virt. eigenvalues --    2.69865   2.71460   2.74504   2.76160   2.76981
 Alpha virt. eigenvalues --    2.79977   2.82524   2.92158   2.95898   2.96285
 Alpha virt. eigenvalues --    3.00695   3.01906   3.06109   3.07669   3.14881
 Alpha virt. eigenvalues --    3.17199   3.19111   3.20333   3.27113   3.30461
 Alpha virt. eigenvalues --    3.38753   3.47860   3.55087   3.83168   4.39981
 Alpha virt. eigenvalues --    4.48853   4.54415   4.56544   4.58895   4.62271
 Alpha virt. eigenvalues --    4.64746   4.76509   4.80169   4.85789   4.90025
 Alpha virt. eigenvalues --    4.93932   5.18003
          Condensed to atoms (all electrons):
               1          2          3          4          5          6
     1  H    0.466589   0.383969  -0.021647  -0.018072  -0.030750   0.002938
     2  C    0.383969   5.261255   0.374754   0.376841   0.372233  -0.071729
     3  H   -0.021647   0.374754   0.527614  -0.024240  -0.037476   0.002376
     4  H   -0.018072   0.376841  -0.024240   0.492277  -0.027093   0.000067
     5  C   -0.030750   0.372233  -0.037476  -0.027093   4.136984   0.599927
     6  O    0.002938  -0.071729   0.002376   0.000067   0.599927   8.167523
     7  H    0.000003   0.000394  -0.000028  -0.000009  -0.001120   0.007431
     8  H    0.000004  -0.000017  -0.000023  -0.000003   0.002165   0.000387
     9  C   -0.000105   0.004534   0.000003  -0.000197  -0.022068   0.004006
    10  N    0.003741  -0.117689   0.005723   0.000444   0.273551  -0.103529
    11  H    0.000057  -0.000158   0.000498   0.000036  -0.018458   0.002425
    12  H    0.000000   0.000000   0.000000   0.000000   0.000000   0.000000
    13  H    0.000000   0.000000   0.000000   0.000000   0.000000   0.000000
    14  C    0.000000   0.000000   0.000000   0.000000   0.000000   0.000000
    15  C    0.000000   0.000000   0.000000   0.000000  -0.000001   0.000000
    16  H    0.000000   0.000000   0.000000   0.000000   0.000000   0.000000
    17  H    0.000000   0.000000   0.000000   0.000000   0.000000   0.000000
    18  H    0.000000   0.000000   0.000000   0.000000   0.000000  -0.000002
    19  H    0.000000   0.000000   0.000000   0.000000   0.000000   0.000000
    20  C    0.000000   0.000000   0.000000   0.000000  -0.000002   0.000000
    21  C    0.000000   0.000000   0.000000   0.000000   0.000000   0.000000
    22  C    0.000000   0.000001   0.000000  -0.000001   0.000055   0.000063
    23  C    0.000000  -0.000008   0.000001   0.000001  -0.000094  -0.000031
    24  C    0.000001  -0.000031  -0.000004   0.000034   0.001987  -0.001279
    25  H    0.000000   0.000000   0.000000   0.000000   0.000000   0.000000
    26  H    0.000000   0.000000   0.000000   0.000000  -0.000001   0.000000
    27  H   -0.000002   0.000151  -0.000002  -0.000032   0.001226   0.006664
    28  C   -0.000002  -0.000421   0.000008   0.000083  -0.001614  -0.002196
               7          8          9         10         11         12
     1  H    0.000003   0.000004  -0.000105   0.003741   0.000057   0.000000
     2  C    0.000394  -0.000017   0.004534  -0.117689  -0.000158   0.000000
     3  H   -0.000028  -0.000023   0.000003   0.005723   0.000498   0.000000
     4  H   -0.000009  -0.000003  -0.000197   0.000444   0.000036   0.000000
     5  C   -0.001120   0.002165  -0.022068   0.273551  -0.018458   0.000000
     6  O    0.007431   0.000387   0.004006  -0.103529   0.002425   0.000000
     7  H    0.447841  -0.021532   0.409214  -0.040388   0.003135   0.000000
     8  H   -0.021532   0.516153   0.418863  -0.043498  -0.001834   0.000000
     9  C    0.409214   0.418863   4.928420   0.190951  -0.022960  -0.000001
    10  N   -0.040388  -0.043498   0.190951   7.369222   0.321892   0.000000
    11  H    0.003135  -0.001834  -0.022960   0.321892   0.333015   0.000000
    12  H    0.000000   0.000000  -0.000001   0.000000   0.000000   0.537997
    13  H    0.000000   0.000000   0.000007   0.000000   0.000000   0.000003
    14  C    0.000002  -0.000008  -0.000119   0.000001   0.000000   0.405913
    15  C   -0.000003  -0.000021   0.000363   0.000002  -0.000007   0.002680
    16  H    0.000000   0.000000   0.000002   0.000000   0.000000  -0.028649
    17  H    0.000000   0.000000   0.000001   0.000000   0.000000  -0.002465
    18  H   -0.000001   0.000002  -0.000124   0.000005   0.000000   0.000002
    19  H    0.000000   0.000000   0.000000   0.000000   0.000000  -0.002257
    20  C   -0.000047   0.000259   0.002517   0.000025  -0.000001  -0.045996
    21  C    0.000000   0.000000  -0.000001   0.000000   0.000000  -0.041132
    22  C    0.000063  -0.000030   0.002237  -0.000010  -0.000010  -0.000063
    23  C    0.001538  -0.000803  -0.035970  -0.001322   0.000984  -0.002825
    24  C   -0.002754   0.003364  -0.044362  -0.000048   0.000345  -0.000004
    25  H    0.000000   0.000000   0.000000   0.000000   0.000000   0.004086
    26  H    0.000035   0.003051  -0.003097   0.000120   0.000056   0.002106
    27  H    0.000651  -0.000055  -0.000374  -0.002160  -0.000034   0.000000
    28  C   -0.038885  -0.060666   0.329759  -0.075216   0.001534   0.000118
              13         14         15         16         17         18
     1  H    0.000000   0.000000   0.000000   0.000000   0.000000   0.000000
     2  C    0.000000   0.000000   0.000000   0.000000   0.000000   0.000000
     3  H    0.000000   0.000000   0.000000   0.000000   0.000000   0.000000
     4  H    0.000000   0.000000   0.000000   0.000000   0.000000   0.000000
     5  C    0.000000   0.000000  -0.000001   0.000000   0.000000   0.000000
     6  O    0.000000   0.000000   0.000000   0.000000   0.000000  -0.000002
     7  H    0.000000   0.000002  -0.000003   0.000000   0.000000  -0.000001
     8  H    0.000000  -0.000008  -0.000021   0.000000   0.000000   0.000002
     9  C    0.000007  -0.000119   0.000363   0.000002   0.000001  -0.000124
    10  N    0.000000   0.000001   0.000002   0.000000   0.000000   0.000005
    11  H    0.000000   0.000000  -0.000007   0.000000   0.000000   0.000000
    12  H    0.000003   0.405913   0.002680  -0.028649  -0.002465   0.000002
    13  H    0.483090  -0.002627   0.382169   0.002080   0.000001  -0.001600
    14  C   -0.002627   5.069919  -0.044903   0.407236  -0.037515  -0.000116
    15  C    0.382169  -0.044903   4.927098  -0.002761   0.000358  -0.030302
    16  H    0.002080   0.407236  -0.002761   0.533796   0.004062  -0.000005
    17  H    0.000001  -0.037515   0.000358   0.004062   0.540232   0.000000
    18  H   -0.001600  -0.000116  -0.030302  -0.000005   0.000000   0.473836
    19  H   -0.000012  -0.036831  -0.000014  -0.002380  -0.027321   0.000000
    20  C   -0.033678   0.329185   0.577420  -0.046426  -0.002989   0.002054
    21  C    0.000255   0.329143  -0.003015  -0.040140   0.391245   0.000002
    22  C   -0.030833   0.002947   0.538418   0.000163  -0.000008   0.381497
    23  C    0.003105  -0.045066  -0.042598   0.002873   0.001908   0.000429
    24  C    0.002544   0.000243  -0.045232  -0.000006  -0.000005  -0.028980
    25  H    0.000210  -0.037259   0.001782  -0.002452  -0.027652   0.000002
    26  H   -0.000131  -0.002438   0.003089  -0.000007   0.000288   0.000013
    27  H   -0.000106   0.000006   0.002310   0.000000   0.000000  -0.001421
    28  C    0.000225   0.002325  -0.035790  -0.000026  -0.000014   0.002224
              19         20         21         22         23         24
     1  H    0.000000   0.000000   0.000000   0.000000   0.000000   0.000001
     2  C    0.000000   0.000000   0.000000   0.000001  -0.000008  -0.000031
     3  H    0.000000   0.000000   0.000000   0.000000   0.000001  -0.000004
     4  H    0.000000   0.000000   0.000000  -0.000001   0.000001   0.000034
     5  C    0.000000  -0.000002   0.000000   0.000055  -0.000094   0.001987
     6  O    0.000000   0.000000   0.000000   0.000063  -0.000031  -0.001279
     7  H    0.000000  -0.000047   0.000000   0.000063   0.001538  -0.002754
     8  H    0.000000   0.000259   0.000000  -0.000030  -0.000803   0.003364
     9  C    0.000000   0.002517  -0.000001   0.002237  -0.035970  -0.044362
    10  N    0.000000   0.000025   0.000000  -0.000010  -0.001322  -0.000048
    11  H    0.000000  -0.000001   0.000000  -0.000010   0.000984   0.000345
    12  H   -0.002257  -0.045996  -0.041132  -0.000063  -0.002825  -0.000004
    13  H   -0.000012  -0.033678   0.000255  -0.030833   0.003105   0.002544
    14  C   -0.036831   0.329185   0.329143   0.002947  -0.045066   0.000243
    15  C   -0.000014   0.577420  -0.003015   0.538418  -0.042598  -0.045232
    16  H   -0.002380  -0.046426  -0.040140   0.000163   0.002873  -0.000006
    17  H   -0.027321  -0.002989   0.391245  -0.000008   0.001908  -0.000005
    18  H    0.000000   0.002054   0.000002   0.381497   0.000429  -0.028980
    19  H    0.541361   0.005833   0.387307   0.000001  -0.000026   0.000000
    20  C    0.005833   4.812241  -0.059060  -0.037892   0.555339  -0.034640
    21  C    0.387307  -0.059060   5.117237  -0.000094  -0.002919   0.000023
    22  C    0.000001  -0.037892  -0.000094   4.895133  -0.042090   0.545939
    23  C   -0.000026   0.555339  -0.002919  -0.042090   4.962770  -0.044736
    24  C    0.000000  -0.034640   0.000023   0.545939  -0.044736   4.952922
    25  H   -0.026823  -0.002625   0.391716  -0.000025   0.000390  -0.000007
    26  H   -0.000017  -0.032542   0.000282   0.000080   0.377982   0.003155
    27  H    0.000000   0.000244   0.000000  -0.026673   0.002503   0.374082
    28  C    0.000001  -0.038959  -0.000079  -0.038550   0.569084   0.552358
              25         26         27         28
     1  H    0.000000   0.000000  -0.000002  -0.000002
     2  C    0.000000   0.000000   0.000151  -0.000421
     3  H    0.000000   0.000000  -0.000002   0.000008
     4  H    0.000000   0.000000  -0.000032   0.000083
     5  C    0.000000  -0.000001   0.001226  -0.001614
     6  O    0.000000   0.000000   0.006664  -0.002196
     7  H    0.000000   0.000035   0.000651  -0.038885
     8  H    0.000000   0.003051  -0.000055  -0.060666
     9  C    0.000000  -0.003097  -0.000374   0.329759
    10  N    0.000000   0.000120  -0.002160  -0.075216
    11  H    0.000000   0.000056  -0.000034   0.001534
    12  H    0.004086   0.002106   0.000000   0.000118
    13  H    0.000210  -0.000131  -0.000106   0.000225
    14  C   -0.037259  -0.002438   0.000006   0.002325
    15  C    0.001782   0.003089   0.002310  -0.035790
    16  H   -0.002452  -0.000007   0.000000  -0.000026
    17  H   -0.027652   0.000288   0.000000  -0.000014
    18  H    0.000002   0.000013  -0.001421   0.002224
    19  H   -0.026823  -0.000017   0.000000   0.000001
    20  C   -0.002625  -0.032542   0.000244  -0.038959
    21  C    0.391716   0.000282   0.000000  -0.000079
    22  C   -0.000025   0.000080  -0.026673  -0.038550
    23  C    0.000390   0.377982   0.002503   0.569084
    24  C   -0.000007   0.003155   0.374082   0.552358
    25  H    0.533061   0.000005   0.000000  -0.000010
    26  H    0.000005   0.492675  -0.000121  -0.033561
    27  H    0.000000  -0.000121   0.435133  -0.028586
    28  C   -0.000010  -0.033561  -0.028586   4.864116
 Mulliken charges:
               1
     1  H    0.213276
     2  C   -0.584080
     3  H    0.172443
     4  H    0.199862
     5  C    0.750548
     6  O   -0.615041
     7  H    0.234462
     8  H    0.184242
     9  C   -0.161502
    10  N   -0.781816
    11  H    0.379487
    12  H    0.170488
    13  H    0.195301
    14  C   -0.340038
    15  C   -0.231042
    16  H    0.172640
    17  H    0.159871
    18  H    0.202482
    19  H    0.161179
    20  C    0.049739
    21  C   -0.470769
    22  C   -0.190320
    23  C   -0.260418
    24  C   -0.234910
    25  H    0.165602
    26  H    0.188977
    27  H    0.236596
    28  C    0.032738
 Sum of Mulliken charges =   0.00000
 Mulliken charges with hydrogens summed into heavy atoms:
               1
     2  C    0.001501
     5  C    0.750548
     6  O   -0.615041
     9  C    0.257203
    10  N   -0.402329
    14  C    0.003090
    15  C   -0.035741
    20  C    0.049739
    21  C    0.015883
    22  C    0.012162
    23  C   -0.071440
    24  C    0.001686
    28  C    0.032738
 DipInt: DoE/N= T F RetVal/Mat= T F Init=T NMatP=  1 IDeriv=0 Min/MaxMlt=  0  4
 Entering OneElI...
 OneElI was handed  2147351220 working-precision words.
 Multipole integrals L=0 to 4 MinM= 0 MaxM= 0.
 Requested accuracy = 0.1000D-12
 PrtBox:  NBox=     1 Levels=  1 BoxLen=   35.86 SMaxX=       18.79
          Shift=            9.517640            4.366242            3.688870
 Box      1 Number                   0 centers from      1 to     82:
 ShPair: Thresh= 1.00D-13 NBox=     1 BxSize= 3.59D+01 RnKept= 1.90D+01
         NSMCal=                 3403 NSMKep=                2896
 PrsmSu:  NPrtUS=   1 ThrOK=F IAlg=1 NPAlg=1 LenDen=           0.
 Prism:   IPart=     0 DynPar=F LinDyn=F Incr=          28.
 PRISM was handed  2147105292 working-precision words and  2896 shell-pairs
 IPart=  0 NShTot=        2896 NBatch=          48 AvBLen=        60.3
 PrSmSu:  NxtVal=             29.
 Electronic moments (au):
        -96.00000000          0.76637163         -1.21225714          0.52636559
      -2629.23409464       -491.54174089       -275.34948482          6.75421868
         -3.59189026          2.01135513        370.84048948       -338.70902561
        -43.38724916       -656.98961983       2179.86484910      -1636.05380585
        232.18741023        200.12101947       -362.51581199       -195.97418655
    -128747.77958164      -6446.93052943      -2427.27660828       7404.57041546
       3623.54229405         43.62503853       -253.19025215        467.26580723
        154.04235749     -12611.15985168      -8366.89443323      -1414.49710426
       4215.73971311      -1032.27820023       -307.61586974
 Electronic spatial extent (au):  <R**2>=           3396.1253
 DipInt: DoE/N= F T RetVal/Mat= T F Init=T NMatP=  1 IDeriv=0 Min/MaxMlt=  0  4
 Nuclear    moments (au):
         96.00000000          0.00000000          0.00000000          0.00000000
       2567.95931359        435.37355747        217.45951565          0.00000000
          0.00010258          0.00001707       -335.08496918        335.45360149
         40.64303441        652.11894037      -2225.50577770       1670.76081220
       -251.66731204       -203.16338485        371.96284693        205.96970516
     119325.46260246       4752.64982196       1448.79508602      -7071.10178059
      -3827.48638403         -5.99999209        301.58368433       -464.26670044
       -141.28020328      10715.99232027       6651.72826476        958.92553746
      -4181.73313376       1030.47812529        303.44300241
 Total      moments (au):
          0.00000000          0.76637163         -1.21225714          0.52636559
        -61.27478105        -56.16818342        -57.88996917          6.75421868
         -3.59178767          2.01137220         35.75552030         -3.25542412
         -2.74421476         -4.87067947        -45.64092860         34.70700635
        -19.47990180         -3.04236537          9.44703494          9.99551861
      -9422.31697918      -1694.28070748       -978.48152226        333.46863487
       -203.94408998         37.62504644         48.39343218          2.99910679
         12.76215421      -1895.16753140      -1715.16616847       -455.57156680
         34.00657934         -1.80007494         -4.17286733
 Traceless Quadrup. (au):
         -2.83046984          2.27612780          0.55434204          6.75421868
         -3.59178767          2.01137220
 Charge=              0.0000 electrons
 Dipole moment (field-independent basis, Debye):
    X=              1.9479    Y=             -3.0813    Z=              1.3379  Tot=              3.8831
 Quadrupole moment (field-independent basis, Debye-Ang):
   XX=            -82.4167   YY=            -75.5481   ZZ=            -77.8640
   XY=              9.0847   XZ=             -4.8311   YZ=              2.7054
 Traceless Quadrupole moment (field-independent basis, Debye-Ang):
   XX=             -3.8071   YY=              3.0615   ZZ=              0.7456
   XY=              9.0847   XZ=             -4.8311   YZ=              2.7054
 Octapole moment (field-independent basis, Debye-Ang**2):
  XXX=             25.4494  YYY=             -2.3171  ZZZ=             -1.9532  XYY=             -3.4668
  XXY=            -32.4855  XXZ=             24.7031  XZZ=            -13.8650  YZZ=             -2.1654
  YYZ=              6.7240  XYZ=              7.1144
 Hexadecapole moment (field-independent basis, Debye-Ang**3):
 XXXX=          -3548.8962 YYYY=           -638.1473 ZZZZ=           -368.5430 XXXY=            125.6003
 XXXZ=            -76.8151 YYYX=             14.1714 YYYZ=             18.2273 ZZZX=              1.1296
 ZZZY=              4.8068 XXYY=           -713.8109 XXZZ=           -646.0138 YYZZ=           -171.5901
 XXYZ=             12.8085 YYXZ=             -0.6780 ZZXY=             -1.5717
 N-N= 7.562971841566D+02 E-N=-2.807647571774D+03  KE= 5.540335217286D+02
 Entering OneElI...
 OneElI was handed  2147375720 working-precision words.
 Calculate electrostatic properties
    NBasis =   225  MinDer = 0  MaxDer = 0
    NGrid  =    28  NMatD  =   1
 Requested accuracy = 0.1000D-12
 PrtBox:  NBox=     1 Levels=  1 BoxLen=   29.89 SMaxX=       18.79
          Shift=            9.517640            4.366242            3.688870
 Box      1 Number                   0 centers from      1 to     82:
 ShPair: Thresh= 1.00D-13 NBox=     1 BxSize= 2.99D+01 RnKept= 1.71D+01
         NSMCal=                 3403 NSMKep=                2616
 PrsmSu:  NPrtUS=   4 ThrOK=T IAlg=1 NPAlg=1 LenDen=           0.
 Prism:   IPart=     0 DynPar=F LinDyn=F Incr=         183.
 PRISM was handed   536728006 working-precision words and  2616 shell-pairs
 PRISM was handed   536728006 working-precision words and  2616 shell-pairs
 PRISM was handed   536728006 working-precision words and  2616 shell-pairs
 PRISM was handed   536728006 working-precision words and  2616 shell-pairs
 IPart=  2 NShTot=       18200 NBatch=         650 AvBLen=        28.0
 IPart=  0 NShTot=       18704 NBatch=         668 AvBLen=        28.0
 IPart=  3 NShTot=       17892 NBatch=         639 AvBLen=        28.0
 IPart=  1 NShTot=       18452 NBatch=         659 AvBLen=        28.0
 PrSmSu:  NxtVal=            733.
 --------------------------------------------------------
       Center         ----      EFG at Nuclei      ----
                      3XX-RR        3YY-RR        3ZZ-RR
 --------------------------------------------------------
     1   Atom       -0.283880      0.127248      0.156632
     2   Atom        0.019466     -0.003384     -0.016082
     3   Atom        0.153709     -0.311966      0.158257
     4   Atom        0.091328      0.109964     -0.201292
     5   Atom       -0.042638      0.124453     -0.081815
     6   Atom        0.714667     -0.861211      0.146544
     7   Atom        0.036967     -0.054628      0.017661
     8   Atom        0.117715     -0.097523     -0.020192
     9   Atom       -0.025225      0.106720     -0.081495
    10   Atom       -0.108435     -0.057597      0.166032
    11   Atom        0.144349     -0.193661      0.049313
    12   Atom        0.150654      0.047817     -0.198471
    13   Atom       -0.162795      0.072383      0.090412
    14   Atom       -0.023233      0.012660      0.010573
    15   Atom        0.126975      0.059601     -0.186577
    16   Atom       -0.100915     -0.058344      0.159260
    17   Atom       -0.078844     -0.076953      0.155798
    18   Atom        0.152104     -0.209138      0.057035
    19   Atom       -0.212826      0.061535      0.151292
    20   Atom        0.132222      0.070497     -0.202719
    21   Atom        0.018882     -0.006011     -0.012870
    22   Atom        0.194893      0.023077     -0.217970
    23   Atom        0.181180     -0.007890     -0.173290
    24   Atom        0.142983      0.043996     -0.186979
    25   Atom        0.161431      0.052655     -0.214085
    26   Atom        0.146281     -0.198498      0.052217
    27   Atom       -0.215477      0.051911      0.163566
    28   Atom        0.140664      0.069176     -0.209841
 --------------------------------------------------------
                        XY            XZ            YZ
 --------------------------------------------------------
     1   Atom        0.122593     -0.021062      0.009780
     2   Atom       -0.034217      0.033023      0.018383
     3   Atom        0.035014      0.008784     -0.010573
     4   Atom       -0.060972     -0.149551     -0.129635
     5   Atom       -0.175025     -0.287763     -0.341343
     6   Atom        0.037373     -1.170885      0.026002
     7   Atom        0.150091     -0.123323      0.176394
     8   Atom        0.088248      0.083870     -0.211314
     9   Atom       -0.148693      0.174262      0.062964
    10   Atom        0.397475      0.524178      0.550881
    11   Atom        0.172695     -0.065517      0.289495
    12   Atom        0.015813      0.020887     -0.196889
    13   Atom       -0.161027     -0.161718     -0.092898
    14   Atom        0.032569      0.010533      0.018871
    15   Atom       -0.071469      0.045437      0.191250
    16   Atom       -0.228682     -0.001416     -0.000965
    17   Atom       -0.236567     -0.002538      0.004209
    18   Atom        0.030290      0.012414     -0.212055
    19   Atom        0.189725      0.040315     -0.016223
    20   Atom       -0.028129      0.101173      0.238040
    21   Atom        0.005888     -0.006991      0.034644
    22   Atom       -0.041614      0.092945      0.207402
    23   Atom       -0.036806      0.075223      0.162989
    24   Atom       -0.028883      0.087129      0.207904
    25   Atom        0.005844      0.008359     -0.191130
    26   Atom        0.032136      0.012888     -0.215664
    27   Atom        0.196239      0.026965     -0.025886
    28   Atom       -0.079870      0.044922      0.217855
 --------------------------------------------------------


 ---------------------------------------------------------------------------------
              Nuclear Quadrupole Coupling Constant in Principal Axis System
 ---------------------------------------------------------------------------------

       Atom             a.u.   MegaHertz   Gauss  10(-4) cm-1        Axes

              Baa    -0.5238     2.516     0.898     0.839 -0.5258 -0.4234  0.7377
    10 N(14)  Bbb    -0.4809     2.310     0.824     0.770 -0.6818  0.7284 -0.0678
              Bcc     1.0047    -4.825    -1.722    -1.610  0.5086  0.5386  0.6717
 

 ---------------------------------------------------------------------------------

 No NMR shielding tensors so no spin-rotation constants.
 Leave Link  601 at Wed Nov 29 20:36:07 2017, MaxMem=  2147483648 cpu:         0.4
 FitSet:  NAtFit=    28 NAtPot=    28 NAtFrz=     0 MDM=    32 TotChg=   0.00000
 Merz-Kollman atomic radii used.
 Atom Element Radius
    1     1    1.20
    2     6    1.50
    3     1    1.20
    4     1    1.20
    5     6    1.50
    6     8    1.40
    7     1    1.20
    8     1    1.20
    9     6    1.50
   10     7    1.50
   11     1    1.20
   12     1    1.20
   13     1    1.20
   14     6    1.50
   15     6    1.50
   16     1    1.20
   17     1    1.20
   18     1    1.20
   19     1    1.20
   20     6    1.50
   21     6    1.50
   22     6    1.50
   23     6    1.50
   24     6    1.50
   25     1    1.20
   26     1    1.20
   27     1    1.20
   28     6    1.50
 Generate VDW surfaces: Layer= 4 Dens= 6 Start= 1.400 Inc= 0.200

 **********************************************************************

            Electrostatic Properties Using The SCF Density

 **********************************************************************

       Atomic Center    1 is at  -5.036518 -0.634125  1.216233
       Atomic Center    2 is at  -3.998244 -0.928289  1.272704
       Atomic Center    3 is at  -3.922871 -2.009265  1.248129
       Atomic Center    4 is at  -3.596171 -0.577227  2.218201
       Atomic Center    5 is at  -3.240641 -0.263943  0.142259
       Atomic Center    6 is at  -3.583272  0.795064 -0.310712
       Atomic Center    7 is at  -1.780176  0.331921 -1.855664
       Atomic Center    8 is at  -0.939164 -1.196038 -1.952066
       Atomic Center    9 is at  -1.230431 -0.396890 -1.280270
       Atomic Center   10 is at  -2.154298 -0.941082 -0.300833
       Atomic Center   11 is at  -1.858074 -1.739382  0.213242
       Atomic Center   12 is at   3.780536 -1.071483 -1.243074
       Atomic Center   13 is at   3.139825  1.827391  0.914114
       Atomic Center   14 is at   3.717804 -0.547537 -0.293790
       Atomic Center   15 is at   2.267846  1.373436  0.475105
       Atomic Center   16 is at   4.520494  0.183588 -0.292162
       Atomic Center   17 is at   3.172281 -2.310516  0.854745
       Atomic Center   18 is at   0.963878  2.946691  1.099428
       Atomic Center   19 is at   4.904663 -2.036778  0.750057
       Atomic Center   20 is at   2.386059  0.167297 -0.198406
       Atomic Center   21 is at   3.941682 -1.544847  0.849381
       Atomic Center   22 is at   1.037280  2.006921  0.581072
       Atomic Center   23 is at   1.239383 -0.386945 -0.763498
       Atomic Center   24 is at  -0.090669  1.444157  0.015943
       Atomic Center   25 is at   3.916499 -1.044265  1.811936
       Atomic Center   26 is at   1.319712 -1.319019 -1.299260
       Atomic Center   27 is at  -1.042440  1.939048  0.090529
       Atomic Center   28 is at   0.003897  0.232727 -0.664310
      ESP Fit Center   29 is at  -5.253926 -0.257563  2.838988
      ESP Fit Center   30 is at  -5.471334 -0.634125  2.838988
      ESP Fit Center   31 is at  -5.456518  0.093336  2.671156
      ESP Fit Center   32 is at  -5.763979 -0.214125  2.671156
      ESP Fit Center   33 is at  -5.876518 -0.634125  2.671156
      ESP Fit Center   34 is at  -5.763979 -1.054125  2.671156
      ESP Fit Center   35 is at  -5.361613  0.508465  2.404172
      ESP Fit Center   36 is at  -5.752411  0.313871  2.404172
      ESP Fit Center   37 is at  -6.046524 -0.008756  2.404172
      ESP Fit Center   38 is at  -6.204231 -0.415842  2.404172
      ESP Fit Center   39 is at  -6.204231 -0.852408  2.404172
      ESP Fit Center   40 is at  -6.046524 -1.259495  2.404172
      ESP Fit Center   41 is at  -5.752411 -1.582121  2.404172
      ESP Fit Center   42 is at  -4.927792  0.816729  2.056233
      ESP Fit Center   43 is at  -5.360269  0.784320  2.056233
      ESP Fit Center   44 is at  -5.763979  0.625875  2.056233
      ESP Fit Center   45 is at  -6.103052  0.355474  2.056233
      ESP Fit Center   46 is at  -6.347358 -0.002858  2.056233
      ESP Fit Center   47 is at  -6.475190 -0.417280  2.056233
      ESP Fit Center   48 is at  -6.475190 -0.850970  2.056233
      ESP Fit Center   49 is at  -6.347358 -1.265392  2.056233
      ESP Fit Center   50 is at  -6.103052 -1.623724  2.056233
      ESP Fit Center   51 is at  -5.763979 -1.894125  2.056233
      ESP Fit Center   52 is at  -5.036518  0.988630  1.651049
      ESP Fit Center   53 is at  -5.456518  0.933336  1.651049
      ESP Fit Center   54 is at  -5.847896  0.771222  1.651049
      ESP Fit Center   55 is at  -6.183979  0.513336  1.651049
      ESP Fit Center   56 is at  -6.441865  0.177253  1.651049
      ESP Fit Center   57 is at  -6.603979 -0.214125  1.651049
      ESP Fit Center   58 is at  -6.659273 -0.634125  1.651049
      ESP Fit Center   59 is at  -6.603979 -1.054125  1.651049
      ESP Fit Center   60 is at  -6.441865 -1.445503  1.651049
      ESP Fit Center   61 is at  -6.183979 -1.781586  1.651049
      ESP Fit Center   62 is at  -5.847896 -2.039472  1.651049
      ESP Fit Center   63 is at  -4.931030  1.042560  1.216233
      ESP Fit Center   64 is at  -5.351319  1.016117  1.216233
      ESP Fit Center   65 is at  -5.751827  0.885984  1.216233
      ESP Fit Center   66 is at  -6.107390  0.660337  1.216233
      ESP Fit Center   67 is at  -6.395667  0.353354  1.216233
      ESP Fit Center   68 is at  -6.598543 -0.015676  1.216233
      ESP Fit Center   69 is at  -6.703271 -0.423565  1.216233
      ESP Fit Center   70 is at  -6.703271 -0.844685  1.216233
      ESP Fit Center   71 is at  -6.598543 -1.252574  1.216233
      ESP Fit Center   72 is at  -6.395667 -1.621604  1.216233
      ESP Fit Center   73 is at  -6.107390 -1.928587  1.216233
      ESP Fit Center   74 is at  -5.751827 -2.154235  1.216233
      ESP Fit Center   75 is at  -5.456518  0.933336  0.781417
      ESP Fit Center   76 is at  -5.847896  0.771222  0.781417
      ESP Fit Center   77 is at  -6.183979  0.513336  0.781417
      ESP Fit Center   78 is at  -6.441865  0.177253  0.781417
      ESP Fit Center   79 is at  -6.603979 -0.214125  0.781417
      ESP Fit Center   80 is at  -6.659273 -0.634125  0.781417
      ESP Fit Center   81 is at  -6.603979 -1.054125  0.781417
      ESP Fit Center   82 is at  -6.441865 -1.445503  0.781417
      ESP Fit Center   83 is at  -6.183979 -1.781586  0.781417
      ESP Fit Center   84 is at  -5.847896 -2.039472  0.781417
      ESP Fit Center   85 is at  -5.763979  0.625875  0.376233
      ESP Fit Center   86 is at  -6.103052  0.355474  0.376233
      ESP Fit Center   87 is at  -6.347358 -0.002858  0.376233
      ESP Fit Center   88 is at  -6.475190 -0.417280  0.376233
      ESP Fit Center   89 is at  -6.475190 -0.850970  0.376233
      ESP Fit Center   90 is at  -6.347358 -1.265392  0.376233
      ESP Fit Center   91 is at  -6.103052 -1.623724  0.376233
      ESP Fit Center   92 is at  -5.763979 -1.894125  0.376233
      ESP Fit Center   93 is at  -5.752411  0.313871  0.028294
      ESP Fit Center   94 is at  -6.046524 -0.008756  0.028294
      ESP Fit Center   95 is at  -6.204231 -0.415842  0.028294
      ESP Fit Center   96 is at  -6.204231 -0.852408  0.028294
      ESP Fit Center   97 is at  -6.046524 -1.259495  0.028294
      ESP Fit Center   98 is at  -5.752411 -1.582121  0.028294
      ESP Fit Center   99 is at  -5.456518  0.093336 -0.238690
      ESP Fit Center  100 is at  -5.763979 -0.214125 -0.238690
      ESP Fit Center  101 is at  -5.876518 -0.634125 -0.238690
      ESP Fit Center  102 is at  -5.763979 -1.054125 -0.238690
      ESP Fit Center  103 is at  -5.456518 -1.361586 -0.238690
      ESP Fit Center  104 is at  -5.471334 -0.634125 -0.406522
      ESP Fit Center  105 is at  -5.145076 -0.713909  3.018790
      ESP Fit Center  106 is at  -5.145076 -1.142669  3.018790
      ESP Fit Center  107 is at  -4.990190 -1.542476  3.018790
      ESP Fit Center  108 is at  -4.701336 -1.859334  3.018790
      ESP Fit Center  109 is at  -4.317526 -2.050449  3.018790
      ESP Fit Center  110 is at  -3.890595 -2.090010  3.018790
      ESP Fit Center  111 is at  -5.423018 -1.346641  2.757628
      ESP Fit Center  112 is at  -5.247442 -1.731100  2.757628
      ESP Fit Center  113 is at  -4.970663 -2.050520  2.757628
      ESP Fit Center  114 is at  -4.615104 -2.279024  2.757628
      ESP Fit Center  115 is at  -5.544327 -1.739736  2.439401
      ESP Fit Center  116 is at  -5.305208 -2.086158  2.439401
      ESP Fit Center  117 is at  -2.691280 -2.086158  2.439401
      ESP Fit Center  118 is at  -4.312125  0.986299  2.076339
      ESP Fit Center  119 is at  -4.716367  0.874062  2.076339
      ESP Fit Center  120 is at  -5.406782 -2.262527  2.076339
      ESP Fit Center  121 is at  -2.453706 -2.102416  2.076339
      ESP Fit Center  122 is at  -2.237414 -1.742936  2.076339
      ESP Fit Center  123 is at  -2.103457 -1.345363  2.076339
      ESP Fit Center  124 is at  -3.686356  1.107609  1.682394
      ESP Fit Center  125 is at  -4.102564  1.128716  1.682394
      ESP Fit Center  126 is at  -4.514500  1.065610  1.682394
      ESP Fit Center  127 is at  -5.561020 -2.269888  1.682394
      ESP Fit Center  128 is at  -5.561020 -2.269888  0.863014
      ESP Fit Center  129 is at  -5.406782 -2.262527  0.469069
      ESP Fit Center  130 is at  -5.305208 -2.086158  0.106007
      ESP Fit Center  131 is at  -5.247442 -1.731100 -0.212220
      ESP Fit Center  132 is at  -4.970663 -2.050520 -0.212220
      ESP Fit Center  133 is at  -5.145076 -1.142669 -0.473382
      ESP Fit Center  134 is at  -4.990190 -1.542476 -0.473382
      ESP Fit Center  135 is at  -4.701336 -1.859334 -0.473382
      ESP Fit Center  136 is at  -4.317526 -2.050449 -0.473382
      ESP Fit Center  137 is at  -4.140279 -2.385827  2.870884
      ESP Fit Center  138 is at  -3.705463 -2.385827  2.870884
      ESP Fit Center  139 is at  -4.650332 -2.429265  2.703052
      ESP Fit Center  140 is at  -4.342871 -2.736726  2.703052
      ESP Fit Center  141 is at  -3.922871 -2.849265  2.703052
      ESP Fit Center  142 is at  -3.502871 -2.736726  2.703052
      ESP Fit Center  143 is at  -3.195410 -2.429265  2.703052
      ESP Fit Center  144 is at  -4.932877 -2.634635  2.436068
      ESP Fit Center  145 is at  -4.638764 -2.957261  2.436068
      ESP Fit Center  146 is at  -4.247966 -3.151856  2.436068
      ESP Fit Center  147 is at  -3.813262 -3.192137  2.436068
      ESP Fit Center  148 is at  -3.393361 -3.072665  2.436068
      ESP Fit Center  149 is at  -3.044973 -2.809575  2.436068
      ESP Fit Center  150 is at  -2.815151 -2.438398  2.436068
      ESP Fit Center  151 is at  -5.233711 -2.640532  2.088129
      ESP Fit Center  152 is at  -4.989405 -2.998864  2.088129
      ESP Fit Center  153 is at  -4.650332 -3.269265  2.088129
      ESP Fit Center  154 is at  -4.246622 -3.427710  2.088129
      ESP Fit Center  155 is at  -3.814145 -3.460120  2.088129
      ESP Fit Center  156 is at  -3.391328 -3.363614  2.088129
      ESP Fit Center  157 is at  -3.015742 -3.146769  2.088129
      ESP Fit Center  158 is at  -2.720758 -2.828852  2.088129
      ESP Fit Center  159 is at  -2.532586 -2.438111  2.088129
      ESP Fit Center  160 is at  -5.490332 -2.429265  1.682945
      ESP Fit Center  161 is at  -5.328218 -2.820643  1.682945
      ESP Fit Center  162 is at  -5.070332 -3.156726  1.682945
      ESP Fit Center  163 is at  -4.734249 -3.414612  1.682945
      ESP Fit Center  164 is at  -4.342871 -3.576726  1.682945
      ESP Fit Center  165 is at  -3.922871 -3.632020  1.682945
      ESP Fit Center  166 is at  -3.502871 -3.576726  1.682945
      ESP Fit Center  167 is at  -3.111493 -3.414612  1.682945
      ESP Fit Center  168 is at  -2.775410 -3.156726  1.682945
      ESP Fit Center  169 is at  -2.517524 -2.820643  1.682945
      ESP Fit Center  170 is at  -2.355410 -2.429265  1.682945
      ESP Fit Center  171 is at  -5.484896 -2.627714  1.248129
      ESP Fit Center  172 is at  -5.282020 -2.996744  1.248129
      ESP Fit Center  173 is at  -4.993743 -3.303727  1.248129
      ESP Fit Center  174 is at  -4.638180 -3.529375  1.248129
      ESP Fit Center  175 is at  -4.237672 -3.659508  1.248129
      ESP Fit Center  176 is at  -3.817383 -3.685950  1.248129
      ESP Fit Center  177 is at  -3.403722 -3.607040  1.248129
      ESP Fit Center  178 is at  -3.022682 -3.427736  1.248129
      ESP Fit Center  179 is at  -2.698204 -3.159304  1.248129
      ESP Fit Center  180 is at  -5.490332 -2.429265  0.813313
      ESP Fit Center  181 is at  -5.328218 -2.820643  0.813313
      ESP Fit Center  182 is at  -5.070332 -3.156726  0.813313
      ESP Fit Center  183 is at  -4.734249 -3.414612  0.813313
      ESP Fit Center  184 is at  -4.342871 -3.576726  0.813313
      ESP Fit Center  185 is at  -3.922871 -3.632020  0.813313
      ESP Fit Center  186 is at  -3.502871 -3.576726  0.813313
      ESP Fit Center  187 is at  -3.111493 -3.414612  0.813313
      ESP Fit Center  188 is at  -2.775410 -3.156726  0.813313
      ESP Fit Center  189 is at  -5.233711 -2.640532  0.408129
      ESP Fit Center  190 is at  -4.989405 -2.998864  0.408129
      ESP Fit Center  191 is at  -4.650332 -3.269265  0.408129
      ESP Fit Center  192 is at  -4.246622 -3.427710  0.408129
      ESP Fit Center  193 is at  -3.814145 -3.460120  0.408129
      ESP Fit Center  194 is at  -3.391328 -3.363614  0.408129
      ESP Fit Center  195 is at  -3.015742 -3.146769  0.408129
      ESP Fit Center  196 is at  -4.932877 -2.634635  0.060190
      ESP Fit Center  197 is at  -4.638764 -2.957261  0.060190
      ESP Fit Center  198 is at  -4.247966 -3.151856  0.060190
      ESP Fit Center  199 is at  -3.813262 -3.192137  0.060190
      ESP Fit Center  200 is at  -3.393361 -3.072665  0.060190
      ESP Fit Center  201 is at  -4.650332 -2.429265 -0.206794
      ESP Fit Center  202 is at  -4.342871 -2.736726 -0.206794
      ESP Fit Center  203 is at  -3.922871 -2.849265 -0.206794
      ESP Fit Center  204 is at  -3.502871 -2.736726 -0.206794
      ESP Fit Center  205 is at  -4.140279 -2.385827 -0.374626
      ESP Fit Center  206 is at  -3.705463 -2.385827 -0.374626
      ESP Fit Center  207 is at  -3.596171 -0.577227  3.898201
      ESP Fit Center  208 is at  -3.161355 -0.577227  3.840956
      ESP Fit Center  209 is at  -3.378763 -0.200665  3.840956
      ESP Fit Center  210 is at  -3.813579 -0.200665  3.840956
      ESP Fit Center  211 is at  -4.030987 -0.577227  3.840956
      ESP Fit Center  212 is at  -3.813579 -0.953789  3.840956
      ESP Fit Center  213 is at  -3.378763 -0.953789  3.840956
      ESP Fit Center  214 is at  -2.756171 -0.577227  3.673124
      ESP Fit Center  215 is at  -2.868710 -0.157227  3.673124
      ESP Fit Center  216 is at  -3.176171  0.150234  3.673124
      ESP Fit Center  217 is at  -3.596171  0.262773  3.673124
      ESP Fit Center  218 is at  -4.016171  0.150234  3.673124
      ESP Fit Center  219 is at  -4.323632 -0.157227  3.673124
      ESP Fit Center  220 is at  -4.436171 -0.577227  3.673124
      ESP Fit Center  221 is at  -4.323632 -0.997227  3.673124
      ESP Fit Center  222 is at  -4.016171 -1.304688  3.673124
      ESP Fit Center  223 is at  -3.596171 -1.417227  3.673124
      ESP Fit Center  224 is at  -3.176171 -1.304688  3.673124
      ESP Fit Center  225 is at  -2.868710 -0.997227  3.673124
      ESP Fit Center  226 is at  -2.408232 -0.577227  3.406140
      ESP Fit Center  227 is at  -2.488451 -0.148094  3.406140
      ESP Fit Center  228 is at  -2.718273  0.223083  3.406140
      ESP Fit Center  229 is at  -3.066661  0.486173  3.406140
      ESP Fit Center  230 is at  -3.486562  0.605645  3.406140
      ESP Fit Center  231 is at  -3.921266  0.565363  3.406140
      ESP Fit Center  232 is at  -4.312064  0.370769  3.406140
      ESP Fit Center  233 is at  -4.606178  0.048142  3.406140
      ESP Fit Center  234 is at  -4.763884 -0.358944  3.406140
      ESP Fit Center  235 is at  -4.763884 -0.795510  3.406140
      ESP Fit Center  236 is at  -4.606178 -1.202597  3.406140
      ESP Fit Center  237 is at  -4.312064 -1.525223  3.406140
      ESP Fit Center  238 is at  -3.921266 -1.719818  3.406140
      ESP Fit Center  239 is at  -3.486562 -1.760099  3.406140
      ESP Fit Center  240 is at  -3.066661 -1.640627  3.406140
      ESP Fit Center  241 is at  -2.718273 -1.377537  3.406140
      ESP Fit Center  242 is at  -2.488451 -1.006360  3.406140
      ESP Fit Center  243 is at  -2.141248 -0.577227  3.058201
      ESP Fit Center  244 is at  -2.205887 -0.148381  3.058201
      ESP Fit Center  245 is at  -2.394058  0.242360  3.058201
      ESP Fit Center  246 is at  -2.689042  0.560277  3.058201
      ESP Fit Center  247 is at  -3.064628  0.777122  3.058201
      ESP Fit Center  248 is at  -3.487445  0.873627  3.058201
      ESP Fit Center  249 is at  -3.919922  0.841218  3.058201
      ESP Fit Center  250 is at  -4.323632  0.682773  3.058201
      ESP Fit Center  251 is at  -4.662705  0.412372  3.058201
      ESP Fit Center  252 is at  -4.907011  0.054040  3.058201
      ESP Fit Center  253 is at  -5.034843 -0.360382  3.058201
      ESP Fit Center  254 is at  -3.487445 -2.028081  3.058201
      ESP Fit Center  255 is at  -3.064628 -1.931576  3.058201
      ESP Fit Center  256 is at  -2.689042 -1.714731  3.058201
      ESP Fit Center  257 is at  -2.394058 -1.396814  3.058201
      ESP Fit Center  258 is at  -2.205887 -1.006073  3.058201
      ESP Fit Center  259 is at  -1.973416 -0.577227  2.653017
      ESP Fit Center  260 is at  -2.028710 -0.157227  2.653017
      ESP Fit Center  261 is at  -2.190824  0.234151  2.653017
      ESP Fit Center  262 is at  -2.448710  0.570234  2.653017
      ESP Fit Center  263 is at  -2.784793  0.828120  2.653017
      ESP Fit Center  264 is at  -3.176171  0.990234  2.653017
      ESP Fit Center  265 is at  -3.596171  1.045528  2.653017
      ESP Fit Center  266 is at  -4.016171  0.990234  2.653017
      ESP Fit Center  267 is at  -4.407549  0.828120  2.653017
      ESP Fit Center  268 is at  -4.743632  0.570234  2.653017
      ESP Fit Center  269 is at  -2.784793 -1.982574  2.653017
      ESP Fit Center  270 is at  -2.448710 -1.724688  2.653017
      ESP Fit Center  271 is at  -2.190824 -1.388605  2.653017
      ESP Fit Center  272 is at  -2.028710 -0.997227  2.653017
      ESP Fit Center  273 is at  -1.916171 -0.577227  2.218201
      ESP Fit Center  274 is at  -1.968951 -0.159428  2.218201
      ESP Fit Center  275 is at  -2.123976  0.232119  2.218201
      ESP Fit Center  276 is at  -2.371504  0.572812  2.218201
      ESP Fit Center  277 is at  -2.695982  0.841244  2.218201
      ESP Fit Center  278 is at  -3.077023  1.020548  2.218201
      ESP Fit Center  279 is at  -3.490683  1.099458  2.218201
      ESP Fit Center  280 is at  -3.910972  1.073016  2.218201
      ESP Fit Center  281 is at  -4.311480  0.942882  2.218201
      ESP Fit Center  282 is at  -2.123976 -1.386573  2.218201
      ESP Fit Center  283 is at  -1.968951 -0.995026  2.218201
      ESP Fit Center  284 is at  -1.815867  0.154408  1.627183
      ESP Fit Center  285 is at  -1.991443  0.538868  1.627183
      ESP Fit Center  286 is at  -2.268223  0.858288  1.627183
      ESP Fit Center  287 is at  -2.623781  1.086792  1.627183
      ESP Fit Center  288 is at  -3.029314  1.205867  1.627183
      ESP Fit Center  289 is at  -3.451968  1.205867  1.627183
      ESP Fit Center  290 is at  -1.694559  0.547504  1.308956
      ESP Fit Center  291 is at  -1.933677  0.893926  1.308956
      ESP Fit Center  292 is at  -2.248751  1.173058  1.308956
      ESP Fit Center  293 is at  -2.621470  1.368676  1.308956
      ESP Fit Center  294 is at  -5.169415 -0.473710 -0.661376
      ESP Fit Center  295 is at  -5.079228 -0.883435 -0.661376
      ESP Fit Center  296 is at  -4.903070 -1.264193 -0.661376
      ESP Fit Center  297 is at  -4.649179 -1.598181 -0.661376
      ESP Fit Center  298 is at  -4.329426 -1.869781 -0.661376
      ESP Fit Center  299 is at  -3.958764 -2.066294 -0.661376
      ESP Fit Center  300 is at  -4.935989 -0.681809 -1.024438
      ESP Fit Center  301 is at  -4.786724 -1.075390 -1.024438
      ESP Fit Center  302 is at  -4.547605 -1.421812 -1.024438
      ESP Fit Center  303 is at  -4.232531 -1.700944 -1.024438
      ESP Fit Center  304 is at  -4.665415 -0.682295 -1.342665
      ESP Fit Center  305 is at  -4.489839 -1.066754 -1.342665
      ESP Fit Center  306 is at  -4.213060 -1.386174 -1.342665
      ESP Fit Center  307 is at  -3.857501 -1.614678 -1.342665
      ESP Fit Center  308 is at  -4.387473 -0.478323 -1.603827
      ESP Fit Center  309 is at  -4.232587 -0.878130 -1.603827
      ESP Fit Center  310 is at  -3.943733 -1.194988 -1.603827
      ESP Fit Center  311 is at  -3.936610 -0.665761 -1.797888
      ESP Fit Center  312 is at  -3.642459 -0.959912 -1.797888
      ESP Fit Center  313 is at  -3.787026  1.147975  1.606457
      ESP Fit Center  314 is at  -3.184670  1.485463  1.479837
      ESP Fit Center  315 is at  -3.583272  1.592268  1.479837
      ESP Fit Center  316 is at  -3.981874  1.485463  1.479837
      ESP Fit Center  317 is at  -4.273671  1.193666  1.479837
      ESP Fit Center  318 is at  -2.731890  1.571201  1.274961
      ESP Fit Center  319 is at  -3.069755  1.826345  1.274961
      ESP Fit Center  320 is at  -3.476973  1.942209  1.274961
      ESP Fit Center  321 is at  -3.898548  1.903144  1.274961
      ESP Fit Center  322 is at  -4.277543  1.714427  1.274961
      ESP Fit Center  323 is at  -4.562772  1.401545  1.274961
      ESP Fit Center  324 is at  -2.629426  1.895861  1.000784
      ESP Fit Center  325 is at  -2.978194  2.120001  1.000784
      ESP Fit Center  326 is at  -3.375981  2.236802  1.000784
      ESP Fit Center  327 is at  -3.790563  2.236802  1.000784
[...]
 ! A27   A(20,15,22)           120.6419         -DE/DX =    0.0                 !
 ! A28   A(14,20,15)           121.0758         -DE/DX =    0.0                 !
 ! A29   A(14,20,23)           120.6892         -DE/DX =    0.0                 !
 ! A30   A(15,20,23)           118.2216         -DE/DX =    0.0                 !
 ! A31   A(14,21,17)           111.0355         -DE/DX =    0.0                 !
 ! A32   A(14,21,19)           110.8486         -DE/DX =    0.0                 !
 ! A33   A(14,21,25)           110.9668         -DE/DX =    0.0                 !
 ! A34   A(17,21,19)           108.0281         -DE/DX =    0.0                 !
 ! A35   A(17,21,25)           107.7303         -DE/DX =    0.0                 !
 ! A36   A(19,21,25)           108.0994         -DE/DX =    0.0                 !
 ! A37   A(15,22,18)           119.7326         -DE/DX =    0.0                 !
 ! A38   A(15,22,24)           120.4443         -DE/DX =    0.0                 !
 ! A39   A(18,22,24)           119.8209         -DE/DX =    0.0                 !
 ! A40   A(20,23,26)           118.9561         -DE/DX =    0.0                 !
 ! A41   A(20,23,28)           121.7917         -DE/DX =    0.0                 !
 ! A42   A(26,23,28)           119.25           -DE/DX =    0.0                 !
 ! A43   A(22,24,27)           120.4527         -DE/DX =    0.0                 !
 ! A44   A(22,24,28)           119.9191         -DE/DX =    0.0                 !
 ! A45   A(27,24,28)           119.6264         -DE/DX =    0.0                 !
 ! A46   A(9,28,23)            120.7299         -DE/DX =    0.0                 !
 ! A47   A(9,28,24)            120.2884         -DE/DX =    0.0                 !
 ! A48   A(23,28,24)           118.9812         -DE/DX =    0.0                 !
 ! D1    D(1,2,5,6)             29.2428         -DE/DX =    0.0                 !
 ! D2    D(1,2,5,10)          -151.4395         -DE/DX =    0.0                 !
 ! D3    D(3,2,5,6)            151.1374         -DE/DX =    0.0                 !
 ! D4    D(3,2,5,10)           -29.545          -DE/DX =    0.0                 !
 ! D5    D(4,2,5,6)            -88.5221         -DE/DX =    0.0                 !
 ! D6    D(4,2,5,10)            90.7955         -DE/DX =    0.0                 !
 ! D7    D(2,5,10,9)          -173.5168         -DE/DX =    0.0                 !
 ! D8    D(2,5,10,11)           -8.3445         -DE/DX =    0.0                 !
 ! D9    D(6,5,10,9)             5.7902         -DE/DX =    0.0                 !
 ! D10   D(6,5,10,11)          170.9626         -DE/DX =    0.0                 !
 ! D11   D(7,9,10,5)           -24.9674         -DE/DX =    0.0                 !
 ! D12   D(7,9,10,11)          169.7605         -DE/DX =    0.0                 !
 ! D13   D(8,9,10,5)          -140.684          -DE/DX =    0.0                 !
 ! D14   D(8,9,10,11)           54.0439         -DE/DX =    0.0                 !
 ! D15   D(28,9,10,5)           97.1112         -DE/DX =    0.0                 !
 ! D16   D(28,9,10,11)         -68.1609         -DE/DX =    0.0                 !
 ! D17   D(7,9,28,23)         -132.016          -DE/DX =    0.0                 !
 ! D18   D(7,9,28,24)           48.2328         -DE/DX =    0.0                 !
 ! D19   D(8,9,28,23)          -13.2912         -DE/DX =    0.0                 !
 ! D20   D(8,9,28,24)          166.9576         -DE/DX =    0.0                 !
 ! D21   D(10,9,28,23)         108.0198         -DE/DX =    0.0                 !
 ! D22   D(10,9,28,24)         -71.7315         -DE/DX =    0.0                 !
 ! D23   D(12,14,20,15)       -146.9772         -DE/DX =    0.0                 !
 ! D24   D(12,14,20,23)         34.3811         -DE/DX =    0.0                 !
 ! D25   D(16,14,20,15)        -30.6582         -DE/DX =    0.0                 !
 ! D26   D(16,14,20,23)        150.7001         -DE/DX =    0.0                 !
 ! D27   D(21,14,20,15)         91.1326         -DE/DX =    0.0                 !
 ! D28   D(21,14,20,23)        -87.5091         -DE/DX =    0.0                 !
 ! D29   D(12,14,21,17)        -62.0347         -DE/DX =    0.0                 !
 ! D30   D(12,14,21,19)         58.0495         -DE/DX =    0.0                 !
 ! D31   D(12,14,21,25)        178.1779         -DE/DX =    0.0                 !
 ! D32   D(16,14,21,17)       -178.0999         -DE/DX =    0.0                 !
 ! D33   D(16,14,21,19)        -58.0157         -DE/DX =    0.0                 !
 ! D34   D(16,14,21,25)         62.1127         -DE/DX =    0.0                 !
 ! D35   D(20,14,21,17)         59.9972         -DE/DX =    0.0                 !
 ! D36   D(20,14,21,19)       -179.9187         -DE/DX =    0.0                 !
 ! D37   D(20,14,21,25)        -59.7903         -DE/DX =    0.0                 !
 ! D38   D(13,15,20,14)          1.8226         -DE/DX =    0.0                 !
 ! D39   D(13,15,20,23)       -179.5031         -DE/DX =    0.0                 !
 ! D40   D(22,15,20,14)       -178.6372         -DE/DX =    0.0                 !
 ! D41   D(22,15,20,23)          0.0371         -DE/DX =    0.0                 !
 ! D42   D(13,15,22,18)          0.0825         -DE/DX =    0.0                 !
 ! D43   D(13,15,22,24)        179.5404         -DE/DX =    0.0                 !
 ! D44   D(20,15,22,18)       -179.4581         -DE/DX =    0.0                 !
 ! D45   D(20,15,22,24)         -0.0002         -DE/DX =    0.0                 !
 ! D46   D(14,20,23,26)         -1.9894         -DE/DX =    0.0                 !
 ! D47   D(14,20,23,28)        178.5481         -DE/DX =    0.0                 !
 ! D48   D(15,20,23,26)        179.3309         -DE/DX =    0.0                 !
 ! D49   D(15,20,23,28)         -0.1316         -DE/DX =    0.0                 !
 ! D50   D(15,22,24,27)       -179.462          -DE/DX =    0.0                 !
 ! D51   D(15,22,24,28)          0.0543         -DE/DX =    0.0                 !
 ! D52   D(18,22,24,27)         -0.0046         -DE/DX =    0.0                 !
 ! D53   D(18,22,24,28)        179.5116         -DE/DX =    0.0                 !
 ! D54   D(20,23,28,9)        -179.5689         -DE/DX =    0.0                 !
 ! D55   D(20,23,28,24)          0.1855         -DE/DX =    0.0                 !
 ! D56   D(26,23,28,9)           0.9701         -DE/DX =    0.0                 !
 ! D57   D(26,23,28,24)       -179.2755         -DE/DX =    0.0                 !
 ! D58   D(22,24,28,9)         179.6113         -DE/DX =    0.0                 !
 ! D59   D(22,24,28,23)         -0.1442         -DE/DX =    0.0                 !
 ! D60   D(27,24,28,9)          -0.8684         -DE/DX =    0.0                 !
 ! D61   D(27,24,28,23)        179.376          -DE/DX =    0.0                 !
 --------------------------------------------------------------------------------
 GradGradGradGradGradGradGradGradGradGradGradGradGradGradGradGradGradGrad

                          Input orientation:                          
 ---------------------------------------------------------------------
 Center     Atomic      Atomic             Coordinates (Angstroms)
 Number     Number       Type             X           Y           Z
 ---------------------------------------------------------------------
      1          1           0        5.036518   -0.634125   -1.216233
      2          6           0        3.998244   -0.928289   -1.272704
      3          1           0        3.922871   -2.009265   -1.248129
      4          1           0        3.596171   -0.577227   -2.218201
      5          6           0        3.240641   -0.263943   -0.142259
      6          8           0        3.583272    0.795064    0.310712
      7          1           0        1.780176    0.331921    1.855664
      8          1           0        0.939164   -1.196038    1.952066
      9          6           0        1.230431   -0.396890    1.280270
     10          7           0        2.154298   -0.941082    0.300833
     11          1           0        1.858074   -1.739382   -0.213242
     12          1           0       -3.780536   -1.071483    1.243074
     13          1           0       -3.139825    1.827391   -0.914114
     14          6           0       -3.717804   -0.547537    0.293790
     15          6           0       -2.267846    1.373436   -0.475105
     16          1           0       -4.520494    0.183588    0.292162
     17          1           0       -3.172281   -2.310516   -0.854745
     18          1           0       -0.963878    2.946691   -1.099428
     19          1           0       -4.904663   -2.036778   -0.750057
     20          6           0       -2.386059    0.167297    0.198406
     21          6           0       -3.941682   -1.544847   -0.849381
     22          6           0       -1.037280    2.006921   -0.581072
     23          6           0       -1.239383   -0.386945    0.763498
     24          6           0        0.090669    1.444157   -0.015943
     25          1           0       -3.916499   -1.044265   -1.811936
     26          1           0       -1.319712   -1.319019    1.299260
     27          1           0        1.042440    1.939048   -0.090529
     28          6           0       -0.003897    0.232727    0.664310
 ---------------------------------------------------------------------
                    Distance matrix (angstroms):
                    1          2          3          4          5
     1  H    0.000000
     2  C    1.080618   0.000000
     3  H    1.769813   1.083879   0.000000
     4  H    1.755499   1.085759   1.760257   0.000000
     5  C    2.125001   1.514339   2.175899   2.129339   0.000000
     6  O    2.546776   2.376837   3.226387   2.877282   1.201697
     7  H    4.579690   4.036662   4.439124   4.552007   2.545527
     8  H    5.209815   4.452954   4.450291   4.983346   3.248353
     9  C    4.557972   3.802742   4.030110   4.227120   2.466213
    10  N    3.271529   2.424112   2.582276   2.925221   1.354618
    11  H    3.511423   2.522035   2.325342   2.896799   2.023228
    12  H    9.164056   8.176739   8.150338   8.163364   7.201958
    13  H    8.544175   7.659921   8.044450   7.270246   6.758682
    14  C    8.884021   7.882656   7.930579   7.733383   6.977859
    15  C    7.611393   6.722945   7.096845   6.421072   5.756320
    16  H    9.709809   8.732352   8.858415   8.530007   7.786156
    17  H    8.386021   7.314484   7.112432   7.118655   6.769170
    18  H    6.988608   6.298266   6.961604   5.870579   5.376088
    19  H   10.050464   8.986860   8.841617   8.749281   8.358130
    20  C    7.598561   6.642575   6.828798   6.494719   5.653474
    21  C    9.031726   7.975072   7.888338   7.721994   7.329836
    22  C    6.653539   5.869439   6.416994   5.552196   4.863125
    23  C    6.585390   5.645521   5.772992   5.684129   4.572323
    24  C    5.497397   4.741001   5.303789   4.607003   3.585510
    25  H    8.982182   7.933938   7.918638   7.538129   7.390628
    26  H    6.870112   5.920163   5.869438   6.090049   4.897753
    27  H    4.882734   4.284383   5.022559   4.168953   3.112544
    28  C    5.449189   4.595336   4.909527   4.682455   3.379980
                    6          7          8          9         10
     6  O    0.000000
     7  H    2.419201   0.000000
     8  H    3.694569   1.746784   0.000000
     9  C    2.810099   1.079103   1.083874   0.000000
    10  N    2.248615   2.044016   2.065944   1.452230   0.000000
    11  H    3.110346   2.928607   2.414162   2.103996   0.994638
    12  H    7.653690   5.767697   4.774280   5.056308   6.010580
    13  H    6.911290   5.840763   5.830460   5.372326   6.096579
    14  C    7.423515   5.782792   4.985758   5.047858   5.885279
    15  C    5.931914   4.785783   4.772658   4.295735   5.051181
    16  H    8.126824   6.493457   5.870819   5.863996   6.768885
    17  H    7.525983   6.233428   5.101395   5.253963   5.619889
    18  H    5.224420   4.806186   5.485926   4.653761   5.176730
    19  H    9.010527   7.555633   6.492967   6.667146   7.220377
    20  C    6.003300   4.486772   3.998889   3.816770   4.674809
    21  C    7.965295   6.601453   5.638478   5.709989   6.232856
    22  C    4.859360   4.084283   4.536746   3.792811   4.433356
    23  C    4.985997   3.290491   2.610248   2.523318   3.469611
    24  C    3.567394   2.755797   3.400534   2.523624   3.169902
    25  H    8.008454   6.913558   6.145585   6.039182   6.428765
    26  H    5.430085   3.555910   2.354528   2.711810   3.634342
    27  H    2.815230   2.629597   3.743210   2.714965   3.112000
    28  C    3.648155   2.147575   2.142207   1.516374   2.483495
                   11         12         13         14         15
    11  H    0.000000
    12  H    5.861814   0.000000
    13  H    6.179975   3.669801   0.000000
    14  C    5.724333   1.086092   2.726422   0.000000
    15  C    5.175077   3.349328   1.076639   2.526601   0.000000
    16  H    6.681271   1.739820   2.462405   1.085752   2.660613
    17  H    5.103155   2.511179   4.138460   2.173666   3.812300
    18  H    5.541482   5.437518   2.453960   4.662059   2.136643
    19  H    6.790525   2.483551   4.251279   2.171656   4.319486
    20  C    4.670925   2.137867   2.135831   1.514474   1.386493
    21  C    5.837781   2.151374   3.466865   1.533489   3.384994
    22  C    4.749017   4.508828   2.136315   3.804714   1.388101
    23  C    3.518145   2.675078   3.365909   2.527644   2.385543
    24  C    3.646583   4.785373   3.374859   4.308973   2.403835
    25  H    6.031973   3.058155   3.107365   2.172625   3.217212
    26  H    3.544389   2.473881   4.255788   2.712379   3.361048
    27  H    3.769770   5.839768   4.264047   5.384304   3.380208
    28  C    2.850657   4.037194   3.855959   3.813031   2.779379
                   16         17         18         19         20
    16  H    0.000000
    17  H    3.058370   0.000000
    18  H    4.713892   5.707463   0.000000
    19  H    2.482706   1.756997   6.362925   0.000000
    20  C    2.136555   2.804787   3.381125   3.478634   0.000000
    21  C    2.150728   1.085475   5.394790   1.085907   2.539539
    22  C    4.027389   4.824250   1.075755   5.597920   2.410603
    23  C    3.363533   3.170951   3.828776   4.295006   1.393334
    24  C    4.790280   5.044601   2.131576   6.132632   2.794727
    25  H    2.509913   1.753131   5.015313   1.757594   2.802071
    26  H    3.676558   3.009122   4.906792   4.191271   2.134973
    27  H    5.845881   6.033796   2.461409   7.184024   3.870038
    28  C    4.532169   4.337542   3.376083   5.582884   2.428177
                   21         22         23         24         25
    21  C    0.000000
    22  C    4.595933   0.000000
    23  C    3.353287   2.753054   0.000000
    24  C    5.088086   1.381428   2.393638   0.000000
    25  H    1.085232   4.372032   3.772516   5.047299   0.000000
    26  H    3.397408   3.831096   1.078080   3.369581   4.061814
    27  H    6.128201   2.137867   3.368430   1.075336   6.037754
    28  C    4.577901   2.401379   1.385733   1.392569   4.803224
                   26         27         28
    26  H    0.000000
    27  H    4.257496   0.000000
    28  C    2.131302   2.139190   0.000000
 Stoichiometry    C11H15NO
 Framework group  C1[X(C11H15NO)]
 Deg. of freedom    78
 Full point group                 C1      NOp   1
 Largest Abelian subgroup         C1      NOp   1
 Largest concise Abelian subgroup C1      NOp   1
                         Standard orientation:                         
 ---------------------------------------------------------------------
 Center     Atomic      Atomic             Coordinates (Angstroms)
 Number     Number       Type             X           Y           Z
 ---------------------------------------------------------------------
      1          1           0       -5.036518   -0.634125    1.216233
      2          6           0       -3.998244   -0.928289    1.272704
      3          1           0       -3.922871   -2.009265    1.248129
      4          1           0       -3.596171   -0.577227    2.218201
      5          6           0       -3.240641   -0.263943    0.142259
      6          8           0       -3.583272    0.795064   -0.310712
      7          1           0       -1.780176    0.331921   -1.855664
      8          1           0       -0.939164   -1.196038   -1.952066
      9          6           0       -1.230431   -0.396890   -1.280270
     10          7           0       -2.154298   -0.941082   -0.300833
     11          1           0       -1.858074   -1.739382    0.213242
     12          1           0        3.780536   -1.071483   -1.243074
     13          1           0        3.139825    1.827391    0.914114
     14          6           0        3.717804   -0.547537   -0.293790
     15          6           0        2.267846    1.373436    0.475105
     16          1           0        4.520494    0.183588   -0.292162
     17          1           0        3.172281   -2.310516    0.854745
     18          1           0        0.963878    2.946691    1.099428
     19          1           0        4.904663   -2.036778    0.750057
     20          6           0        2.386059    0.167297   -0.198406
     21          6           0        3.941682   -1.544847    0.849381
     22          6           0        1.037280    2.006921    0.581072
     23          6           0        1.239383   -0.386945   -0.763498
     24          6           0       -0.090669    1.444157    0.015943
     25          1           0        3.916499   -1.044265    1.811936
     26          1           0        1.319712   -1.319019   -1.299260
     27          1           0       -1.042440    1.939048    0.090529
     28          6           0        0.003897    0.232727   -0.664310
 ---------------------------------------------------------------------
 Rotational constants (GHZ):      1.6737564      0.3670685      0.3402364

 Test job not archived.
 1\1\GINC-LAC-349\FOpt\RHF\6-31G(d)\C11H15N1O1\SONGLIN3\29-Nov-2017\0\\
 #HF/6-31G* SCF=tight Test Pop=MK iop(6/33=2) iop(6/42=6) opt # iop(6/5
 0=1)\\remark line goes here\\0,1\H,5.036518,-0.634125,-1.216233\C,3.99
 8244,-0.928289,-1.272704\H,3.922871,-2.009265,-1.248129\H,3.596171,-0.
 577227,-2.218201\C,3.240641,-0.263943,-0.142259\O,3.583272,0.795064,0.
 310712\H,1.780176,0.331921,1.855664\H,0.939164,-1.196038,1.952066\C,1.
 230431,-0.39689,1.28027\N,2.154298,-0.941082,0.300833\H,1.858074,-1.73
 9382,-0.213242\H,-3.780536,-1.071483,1.243074\H,-3.139825,1.827391,-0.
 914114\C,-3.717804,-0.547537,0.29379\C,-2.267846,1.373436,-0.475105\H,
 -4.520494,0.183588,0.292162\H,-3.172281,-2.310516,-0.854745\H,-0.96387
 8,2.946691,-1.099428\H,-4.904663,-2.036778,-0.750057\C,-2.386059,0.167
 297,0.198406\C,-3.941682,-1.544847,-0.849381\C,-1.03728,2.006921,-0.58
 1072\C,-1.239383,-0.386945,0.763498\C,0.090669,1.444157,-0.015943\H,-3
 .916499,-1.044265,-1.811936\H,-1.319712,-1.319019,1.29926\H,1.04244,1.
 939048,-0.090529\C,-0.003897,0.232727,0.66431\\Version=ES64L-G09RevD.0
 1\State=1-A\HF=-554.6262968\RMSD=3.873e-09\RMSF=1.529e-06\Dipole=-0.76
 63716,-1.2122572,-0.5263656\Quadrupole=-2.8304696,2.2761275,0.554342,-
 6.7542188,-3.5917876,-2.0113723\PG=C01 [X(C11H15N1O1)]\\@


 ... I FELL INTO A REVERIE ... THE ATOMS WERE GAMBOLING BEFORE MY EYES
 ... I SAW HOW TWO SMALL ONES UNITED TO FORM A PAIR;
 HOW THE LARGER ONES SEIZED TWO OF THE SMALLER ONES;
 HOW STILL LARGER ONES KEPT HOLD OF THREE OR FOUR
 SMALLER ONES ... I SAW HOW THE LARGER ONES FORMED A CHAIN ...
 THIS WAS THE ORIGIN OF THE STRUCTURE THEORY.

                                   -- C.F.KEKULE VON STRADONITZ
 Job cpu time:       0 days  0 hours  0 minutes 43.8 seconds.
 File lengths (MBytes):  RWF=    134 Int=      0 D2E=      0 Chk=      5 Scr=      2
 Normal termination of Gaussian 09 at Wed Nov 29 20:36:12 2017.
