 Entering Gaussian System, Link 0=g09
 Initial command:
 /opt/software/Gaussian/g09/l1.exe "/mnt/ls15/scratch/users/songlin3/Gau-22660.inp" -scrdir="/mnt/ls15/scratch/users/songlin3/"
 Entering Link 1 = /opt/software/Gaussian/g09/l1.exe PID=     22661.
  
 Copyright (c) 1988,1990,1992,1993,1995,1998,2003,2009,2013,
            Gaussian, Inc.  All Rights Reserved.
  
 This is part of the Gaussian(R) 09 program.  It is based on
 the Gaussian(R) 03 system (copyright 2003, Gaussian, Inc.),
 the Gaussian(R) 98 system (copyright 1998, Gaussian, Inc.),
 the Gaussian(R) 94 system (copyright 1995, Gaussian, Inc.),
 the Gaussian 92(TM) system (copyright 1992, Gaussian, Inc.),
 the Gaussian 90(TM) system (copyright 1990, Gaussian, Inc.),
 the Gaussian 88(TM) system (copyright 1988, Gaussian, Inc.),
 the Gaussian 86(TM) system (copyright 1986, Carnegie Mellon
 University), and the Gaussian 82(TM) system (copyright 1983,
 Carnegie Mellon University). Gaussian is a federally registered
 trademark of Gaussian, Inc.
  
 This software contains proprietary and confidential information,
 including trade secrets, belonging to Gaussian, Inc.
  
 This software is provided under written license and may be
 used, copied, transmitted, or stored only in accord with that
 written license.
  
 The following legend is applicable only to US Government
 contracts under FAR:
  
                    RESTRICTED RIGHTS LEGEND
  
 Use, reproduction and disclosure by the US Government is
 subject to restrictions as set forth in subparagraphs (a)
 and (c) of the Commercial Computer Software - Restricted
 Rights clause in FAR 52.227-19.
  
 Gaussian, Inc.
 340 Quinnipiac St., Bldg. 40, Wallingford CT 06492
  
  
 ---------------------------------------------------------------
 Warning -- This program may not be used in any manner that
 competes with the business of Gaussian, Inc. or will provide
 assistance to any competitor of Gaussian, Inc.  The licensee
 of this program is prohibited from giving any competitor of
 Gaussian, Inc. access to this program.  By using this program,
 the user acknowledges that Gaussian, Inc. is engaged in the
 business of creating and licensing software in the field of
 computational chemistry and represents and warrants to the
 licensee that it is not a competitor of Gaussian, Inc. and that
 it will not use this program in any manner prohibited above.
 ---------------------------------------------------------------
  

 Cite this work as:
 Gaussian 09, Revision D.01,
 M. J. Frisch, G. W. Trucks, H. B. Schlegel, G. E. Scuseria, 
 M. A. Robb, J. R. Cheeseman, G. Scalmani, V. Barone, B. Mennucci, 
 G. A. Petersson, H. Nakatsuji, M. Caricato, X. Li, H. P. Hratchian, 
 A. F. Izmaylov, J. Bloino, G. Zheng, J. L. Sonnenberg, M. Hada, 
 M. Ehara, K. Toyota, R. Fukuda, J. Hasegawa, M. Ishida, T. Nakajima, 
 Y. Honda, O. Kitao, H. Nakai, T. Vreven, J. A. Montgomery, Jr., 
 J. E. Peralta, F. Ogliaro, M. Bearpark, J. J. Heyd, E. Brothers, 
 K. N. Kudin, V. N. Staroverov, T. Keith, R. Kobayashi, J. Normand, 
 K. Raghavachari, A. Rendell, J. C. Burant, S. S. Iyengar, J. Tomasi, 
 M. Cossi, N. Rega, J. M. Millam, M. Klene, J. E. Knox, J. B. Cross, 
 V. Bakken, C. Adamo, J. Jaramillo, R. Gomperts, R. E. Stratmann, 
 O. Yazyev, A. J. Austin, R. Cammi, C. Pomelli, J. W. Ochterski, 
 R. L. Martin, K. Morokuma, V. G. Zakrzewski, G. A. Voth, 
 P. Salvador, J. J. Dannenberg, S. Dapprich, A. D. Daniels, 
 O. Farkas, J. B. Foresman, J. V. Ortiz, J. Cioslowski, 
 and D. J. Fox, Gaussian, Inc., Wallingford CT, 2013.
 
 ******************************************
 Gaussian 09:  ES64L-G09RevD.01 24-Apr-2013
                29-Nov-2017 
 ******************************************
 %RWF=myrwf
 %NoSave
 %chk=opt.chk
 %NprocShared=4
 Will use up to    4 processors via shared memory.
 %Mem=16GB
 ------------------------------------------------------------
 #HF/6-31G* SCF=tight Test Pop=MK iop(6/33=2) iop(6/42=6) opt
 ------------------------------------------------------------
 1/18=20,19=15,38=1/1,3;
 2/9=110,12=2,17=6,18=5,40=1/2;
 3/5=1,6=6,7=1,11=9,16=1,25=1,30=1,71=1/1,2,3;
 4//1;
 5/5=2,32=2,38=5/2;
 6/7=2,8=2,9=2,10=2,15=8,20=1,28=1,33=2,42=6/1,2;
 7//1,2,3,16;
 1/18=20,19=15/3(2);
 2/9=110/2;
 99//99;
 2/9=110/2;
 3/5=1,6=6,7=1,11=9,16=1,25=1,30=1,71=1/1,2,3;
 4/5=5,16=3,69=1/1;
 5/5=2,32=2,38=5/2;
 7//1,2,3,16;
 1/18=20,19=15/3(-5);
 2/9=110/2;
 6/7=2,8=2,9=2,10=2,15=8,19=2,20=1,28=1,33=2,42=6/1,2;
 99/9=1/99;
 ---------------------
 remark line goes here
 ---------------------
 Symbolic Z-matrix:
 Charge =  0 Multiplicity = 1
 H                     18.546   -12.873    20.699 
 C                     18.107   -11.919    20.99 
 H                     18.758   -11.106    20.669 
 H                     17.993   -11.886    22.074 
 C                     16.716   -11.725    20.34 
 O                     16.254   -12.598    19.603 
 H                     14.54    -10.603    19.174 
 H                     14.666   -9.136     20.119 
 C                     14.724   -10.223    20.181 
 N                     16.067   -10.587    20.617 
 H                     16.562   -9.896     21.179 
 H                     10.422   -9.555     24.059 
 H                     10.815   -12.098    23.428 
 C                     11.508   -9.603     24.148 
 C                     11.586   -11.702    22.781 
 H                     11.696   -10.211    25.03 
 H                     11.71    -7.496     23.668 
 H                     11.768   -13.542    21.672 
 H                     11.772   -7.801     25.354 
 C                     12.063   -10.388    22.964 
 C                     12.081   -8.196     24.39 
 C                     12.128   -12.529    21.781 
 C                     13.075   -9.895     22.104 
 C                     13.148   -12.043    20.946 
 H                     13.167   -8.155     24.356 
 H                     13.462   -8.895     22.226 
 H                     13.575   -12.687    20.189 
 C                     13.622   -10.726    21.099 
 

 GradGradGradGradGradGradGradGradGradGradGradGradGradGradGradGradGradGrad
 Berny optimization.
 Initialization pass.
                           ----------------------------
                           !    Initial Parameters    !
                           ! (Angstroms and Degrees)  !
 --------------------------                            --------------------------
 ! Name  Definition              Value          Derivative Info.                !
 --------------------------------------------------------------------------------
 ! R1    R(1,2)                  1.0897         estimate D2E/DX2                !
 ! R2    R(2,3)                  1.0899         estimate D2E/DX2                !
 ! R3    R(2,4)                  1.0905         estimate D2E/DX2                !
 ! R4    R(2,5)                  1.5476         estimate D2E/DX2                !
 ! R5    R(5,6)                  1.2324         estimate D2E/DX2                !
 ! R6    R(5,10)                 1.339          estimate D2E/DX2                !
 ! R7    R(7,9)                  1.0919         estimate D2E/DX2                !
 ! R8    R(8,9)                  1.0903         estimate D2E/DX2                !
 ! R9    R(9,10)                 1.4582         estimate D2E/DX2                !
 ! R10   R(9,28)                 1.5199         estimate D2E/DX2                !
 ! R11   R(10,11)                1.019          estimate D2E/DX2                !
 ! R12   R(12,14)                1.0907         estimate D2E/DX2                !
 ! R13   R(13,15)                1.0816         estimate D2E/DX2                !
 ! R14   R(14,16)                1.0876         estimate D2E/DX2                !
 ! R15   R(14,20)                1.5252         estimate D2E/DX2                !
 ! R16   R(14,21)                1.5384         estimate D2E/DX2                !
 ! R17   R(15,20)                1.4098         estimate D2E/DX2                !
 ! R18   R(15,22)                1.4063         estimate D2E/DX2                !
 ! R19   R(17,21)                1.0719         estimate D2E/DX2                !
 ! R20   R(18,22)                1.0806         estimate D2E/DX2                !
 ! R21   R(19,21)                1.0866         estimate D2E/DX2                !
 ! R22   R(20,23)                1.4166         estimate D2E/DX2                !
 ! R23   R(21,25)                1.0873         estimate D2E/DX2                !
 ! R24   R(22,24)                1.4049         estimate D2E/DX2                !
 ! R25   R(23,26)                1.0792         estimate D2E/DX2                !
 ! R26   R(23,28)                1.4141         estimate D2E/DX2                !
 ! R27   R(24,27)                1.0817         estimate D2E/DX2                !
 ! R28   R(24,28)                1.408          estimate D2E/DX2                !
 ! A1    A(1,2,3)              109.4975         estimate D2E/DX2                !
 ! A2    A(1,2,4)              109.5153         estimate D2E/DX2                !
 ! A3    A(1,2,5)              111.0802         estimate D2E/DX2                !
 ! A4    A(3,2,4)              109.4298         estimate D2E/DX2                !
 ! A5    A(3,2,5)              108.6427         estimate D2E/DX2                !
 ! A6    A(4,2,5)              108.6482         estimate D2E/DX2                !
 ! A7    A(2,5,6)              119.9559         estimate D2E/DX2                !
 ! A8    A(2,5,10)             117.0838         estimate D2E/DX2                !
 ! A9    A(6,5,10)             122.9602         estimate D2E/DX2                !
 ! A10   A(7,9,8)              106.5915         estimate D2E/DX2                !
 ! A11   A(7,9,10)             110.1255         estimate D2E/DX2                !
 ! A12   A(7,9,28)             108.6423         estimate D2E/DX2                !
 ! A13   A(8,9,10)             108.3529         estimate D2E/DX2                !
 ! A14   A(8,9,28)             109.0087         estimate D2E/DX2                !
 ! A15   A(10,9,28)            113.8643         estimate D2E/DX2                !
 ! A16   A(5,10,9)             126.6341         estimate D2E/DX2                !
 ! A17   A(5,10,11)            117.0626         estimate D2E/DX2                !
 ! A18   A(9,10,11)            116.2979         estimate D2E/DX2                !
 ! A19   A(12,14,16)           105.2412         estimate D2E/DX2                !
 ! A20   A(12,14,20)           108.7618         estimate D2E/DX2                !
 ! A21   A(12,14,21)           110.0876         estimate D2E/DX2                !
 ! A22   A(16,14,20)           106.1956         estimate D2E/DX2                !
 ! A23   A(16,14,21)           108.6224         estimate D2E/DX2                !
 ! A24   A(20,14,21)           117.215          estimate D2E/DX2                !
 ! A25   A(13,15,20)           120.316          estimate D2E/DX2                !
 ! A26   A(13,15,22)           118.9984         estimate D2E/DX2                !
 ! A27   A(20,15,22)           120.6636         estimate D2E/DX2                !
 ! A28   A(14,20,15)           117.2171         estimate D2E/DX2                !
 ! A29   A(14,20,23)           123.5128         estimate D2E/DX2                !
 ! A30   A(15,20,23)           119.1606         estimate D2E/DX2                !
 ! A31   A(14,21,17)           111.2484         estimate D2E/DX2                !
 ! A32   A(14,21,19)           111.4755         estimate D2E/DX2                !
 ! A33   A(14,21,25)           113.6781         estimate D2E/DX2                !
 ! A34   A(17,21,19)           105.1736         estimate D2E/DX2                !
 ! A35   A(17,21,25)           107.4586         estimate D2E/DX2                !
 ! A36   A(19,21,25)           107.3407         estimate D2E/DX2                !
 ! A37   A(15,22,18)           119.6445         estimate D2E/DX2                !
 ! A38   A(15,22,24)           119.9344         estimate D2E/DX2                !
 ! A39   A(18,22,24)           120.4121         estimate D2E/DX2                !
 ! A40   A(20,23,26)           120.6655         estimate D2E/DX2                !
 ! A41   A(20,23,28)           120.2161         estimate D2E/DX2                !
 ! A42   A(26,23,28)           119.0876         estimate D2E/DX2                !
 ! A43   A(22,24,27)           119.7732         estimate D2E/DX2                !
 ! A44   A(22,24,28)           120.224          estimate D2E/DX2                !
 ! A45   A(27,24,28)           120.0009         estimate D2E/DX2                !
 ! A46   A(9,28,23)            121.0119         estimate D2E/DX2                !
 ! A47   A(9,28,24)            119.2085         estimate D2E/DX2                !
 ! A48   A(23,28,24)           119.7787         estimate D2E/DX2                !
 ! D1    D(1,2,5,6)             -0.0065         estimate D2E/DX2                !
 ! D2    D(1,2,5,10)          -179.9299         estimate D2E/DX2                !
 ! D3    D(3,2,5,6)            120.4948         estimate D2E/DX2                !
 ! D4    D(3,2,5,10)           -59.4286         estimate D2E/DX2                !
 ! D5    D(4,2,5,6)           -120.5334         estimate D2E/DX2                !
 ! D6    D(4,2,5,10)            59.5431         estimate D2E/DX2                !
 ! D7    D(2,5,10,9)          -176.3747         estimate D2E/DX2                !
 ! D8    D(2,5,10,11)            4.5095         estimate D2E/DX2                !
 ! D9    D(6,5,10,9)             3.7043         estimate D2E/DX2                !
 ! D10   D(6,5,10,11)         -175.4115         estimate D2E/DX2                !
 ! D11   D(7,9,10,5)           -35.9204         estimate D2E/DX2                !
 ! D12   D(7,9,10,11)          143.2012         estimate D2E/DX2                !
 ! D13   D(8,9,10,5)          -152.1508         estimate D2E/DX2                !
 ! D14   D(8,9,10,11)           26.9709         estimate D2E/DX2                !
 ! D15   D(28,9,10,5)           86.3822         estimate D2E/DX2                !
 ! D16   D(28,9,10,11)         -94.4962         estimate D2E/DX2                !
 ! D17   D(7,9,28,23)         -140.8788         estimate D2E/DX2                !
 ! D18   D(7,9,28,24)           39.4716         estimate D2E/DX2                !
 ! D19   D(8,9,28,23)          -25.0962         estimate D2E/DX2                !
 ! D20   D(8,9,28,24)          155.2543         estimate D2E/DX2                !
 ! D21   D(10,9,28,23)          96.006          estimate D2E/DX2                !
 ! D22   D(10,9,28,24)         -83.6436         estimate D2E/DX2                !
 ! D23   D(12,14,20,15)        -57.408          estimate D2E/DX2                !
 ! D24   D(12,14,20,23)        126.435          estimate D2E/DX2                !
 ! D25   D(16,14,20,15)         55.4076         estimate D2E/DX2                !
 ! D26   D(16,14,20,23)       -120.7494         estimate D2E/DX2                !
 ! D27   D(21,14,20,15)        176.9604         estimate D2E/DX2                !
 ! D28   D(21,14,20,23)          0.8034         estimate D2E/DX2                !
 ! D29   D(12,14,21,17)        -50.8356         estimate D2E/DX2                !
 ! D30   D(12,14,21,19)         66.2143         estimate D2E/DX2                !
 ! D31   D(12,14,21,25)       -172.3024         estimate D2E/DX2                !
 ! D32   D(16,14,21,17)       -165.5822         estimate D2E/DX2                !
 ! D33   D(16,14,21,19)        -48.5323         estimate D2E/DX2                !
 ! D34   D(16,14,21,25)         72.951          estimate D2E/DX2                !
 ! D35   D(20,14,21,17)         74.1357         estimate D2E/DX2                !
 ! D36   D(20,14,21,19)       -168.8143         estimate D2E/DX2                !
 ! D37   D(20,14,21,25)        -47.3311         estimate D2E/DX2                !
 ! D38   D(13,15,20,14)          3.5572         estimate D2E/DX2                !
 ! D39   D(13,15,20,23)        179.8883         estimate D2E/DX2                !
 ! D40   D(22,15,20,14)       -174.7235         estimate D2E/DX2                !
 ! D41   D(22,15,20,23)          1.6075         estimate D2E/DX2                !
 ! D42   D(13,15,22,18)          0.105          estimate D2E/DX2                !
 ! D43   D(13,15,22,24)       -178.8049         estimate D2E/DX2                !
 ! D44   D(20,15,22,18)        178.4082         estimate D2E/DX2                !
 ! D45   D(20,15,22,24)         -0.5017         estimate D2E/DX2                !
 ! D46   D(14,20,23,26)         -3.5468         estimate D2E/DX2                !
 ! D47   D(14,20,23,28)        174.4142         estimate D2E/DX2                !
 ! D48   D(15,20,23,26)       -179.6331         estimate D2E/DX2                !
 ! D49   D(15,20,23,28)         -1.6722         estimate D2E/DX2                !
 ! D50   D(15,22,24,27)        178.9362         estimate D2E/DX2                !
 ! D51   D(15,22,24,28)         -0.5572         estimate D2E/DX2                !
 ! D52   D(18,22,24,27)          0.0348         estimate D2E/DX2                !
 ! D53   D(18,22,24,28)       -179.4586         estimate D2E/DX2                !
 ! D54   D(20,23,28,9)        -179.0083         estimate D2E/DX2                !
 ! D55   D(20,23,28,24)          0.6392         estimate D2E/DX2                !
 ! D56   D(26,23,28,9)          -1.0154         estimate D2E/DX2                !
 ! D57   D(26,23,28,24)        178.6322         estimate D2E/DX2                !
 ! D58   D(22,24,28,9)        -179.8614         estimate D2E/DX2                !
 ! D59   D(22,24,28,23)          0.4847         estimate D2E/DX2                !
 ! D60   D(27,24,28,9)           0.6463         estimate D2E/DX2                !
 ! D61   D(27,24,28,23)       -179.0076         estimate D2E/DX2                !
 --------------------------------------------------------------------------------
 Trust Radius=3.00D-01 FncErr=1.00D-07 GrdErr=1.00D-07
 Number of steps in this run=    147 maximum allowed number of steps=    168.
 GradGradGradGradGradGradGradGradGradGradGradGradGradGradGradGradGradGrad

                          Input orientation:                          
 ---------------------------------------------------------------------
 Center     Atomic      Atomic             Coordinates (Angstroms)
 Number     Number       Type             X           Y           Z
 ---------------------------------------------------------------------
      1          1           0       18.546000  -12.873000   20.699000
      2          6           0       18.107000  -11.919000   20.990000
      3          1           0       18.758000  -11.106000   20.669000
      4          1           0       17.993000  -11.886000   22.074000
      5          6           0       16.716000  -11.725000   20.340000
      6          8           0       16.254000  -12.598000   19.603000
      7          1           0       14.540000  -10.603000   19.174000
      8          1           0       14.666000   -9.136000   20.119000
      9          6           0       14.724000  -10.223000   20.181000
     10          7           0       16.067000  -10.587000   20.617000
     11          1           0       16.562000   -9.896000   21.179000
     12          1           0       10.422000   -9.555000   24.059000
     13          1           0       10.815000  -12.098000   23.428000
     14          6           0       11.508000   -9.603000   24.148000
     15          6           0       11.586000  -11.702000   22.781000
     16          1           0       11.696000  -10.211000   25.030000
     17          1           0       11.710000   -7.496000   23.668000
     18          1           0       11.768000  -13.542000   21.672000
     19          1           0       11.772000   -7.801000   25.354000
     20          6           0       12.063000  -10.388000   22.964000
     21          6           0       12.081000   -8.196000   24.390000
     22          6           0       12.128000  -12.529000   21.781000
     23          6           0       13.075000   -9.895000   22.104000
     24          6           0       13.148000  -12.043000   20.946000
     25          1           0       13.167000   -8.155000   24.356000
     26          1           0       13.462000   -8.895000   22.226000
     27          1           0       13.575000  -12.687000   20.189000
     28          6           0       13.622000  -10.726000   21.099000
 ---------------------------------------------------------------------
                    Distance matrix (angstroms):
                    1          2          3          4          5
     1  H    0.000000
     2  C    1.089733   0.000000
     3  H    1.779925   1.089867   0.000000
     4  H    1.780619   1.090477   1.779789   0.000000
     5  C    2.189905   1.547584   2.158973   2.159492   0.000000
     6  O    2.555407   2.412140   3.103617   3.104337   1.232373
     7  H    4.850419   4.213455   4.503283   4.688208   2.711718
     8  H    5.418115   4.510456   4.574698   4.738508   3.309722
     9  C    4.679584   3.869830   4.158243   4.127394   2.499870
    10  N    3.373123   2.464742   2.741085   2.742212   1.339020
    11  H    3.609596   2.552504   2.558636   2.609384   2.018137
    12  H    9.396707   8.606189   9.131626   8.166629   7.625896
    13  H    8.235073   7.690848   8.466841   7.307663   6.670583
    14  C    8.492464   7.673566   8.180767   7.181141   6.791687
    15  C    7.358503   6.765960   7.500223   6.448516   5.681189
    16  H    8.530317   7.767869   8.348125   7.155122   7.034820
    17  H    9.190103   8.225340   8.467609   7.828731   7.349834
    18  H    6.880085   6.578919   7.469953   6.454035   5.436765
    19  H    9.658224   8.725517   9.037502   8.133048   8.061086
    20  C    7.303064   6.539921   7.113759   6.180696   5.506665
    21  C    8.791703   7.857061   8.179014   7.343821   7.095038
    22  C    6.517652   6.061866   6.871563   5.907413   4.875720
    23  C    6.385480   5.537020   5.985168   5.305818   4.440437
    24  C    5.467020   4.960745   5.694453   4.977053   3.633041
    25  H    8.035348   7.064082   7.318583   6.512923   6.439608
    26  H    6.633496   5.678758   5.946460   5.431312   4.706847
    27  H    5.000554   4.665881   5.439986   4.869656   3.288484
    28  C    5.386593   4.642236   5.167959   4.626215   3.338700
                    6          7          8          9         10
     6  O    0.000000
     7  H    2.664932   0.000000
     8  H    3.843624   1.749569   0.000000
     9  C    2.883680   1.091927   1.090311   0.000000
    10  N    2.259931   2.101008   2.077548   1.458164   0.000000
    11  H    3.143158   2.934000   2.301307   2.116879   1.018995
    12  H    7.945314   6.474523   5.806091   5.830293   6.691667
    13  H    6.668084   5.848689   5.878191   5.416541   6.145596
    14  C    7.221604   5.910474   5.140418   5.144331   5.849846
    15  C    5.717755   4.790028   4.812172   4.335261   5.099557
    16  H    7.478333   6.521866   5.839045   5.716794   6.222667
    17  H    7.950004   6.152917   4.901320   5.355361   6.151937
    18  H    5.029522   4.749917   5.497549   4.687940   5.322260
    19  H    8.727745   7.328399   6.128841   6.429644   6.974811
    20  C    5.809036   4.532753   4.054274   3.853989   4.645431
    21  C    7.727024   6.248759   5.080085   5.367482   5.986702
    22  C    4.666082   4.040256   4.551498   3.823199   4.543345
    23  C    4.864900   3.351476   2.654729   2.554352   3.412052
    24  C    3.429127   2.674182   3.382145   2.526144   3.278527
    25  H    7.201446   5.893298   4.600166   4.912382   5.320220
    26  H    5.328002   3.659789   2.438677   2.745588   3.498252
    27  H    2.743785   2.510878   3.715479   2.718743   3.286829
    28  C    3.559470   2.136230   2.139728   1.519913   2.495931
                   11         12         13         14         15
    11  H    0.000000
    12  H    6.790455   0.000000
    13  H    6.552466   2.649426   0.000000
    14  C    5.868878   1.090697   2.687689   0.000000
    15  C    5.530698   2.756409   1.081603   2.506107   0.000000
    16  H    6.213484   1.730969   2.627420   1.087627   2.700589
    17  H    5.957938   2.459940   4.694361   2.170404   4.300300
    18  H    6.043079   4.837939   2.465133   4.659817   2.156062
    19  H    6.690572   2.564379   4.805157   2.184339   4.676829
    20  C    4.865109   2.141447   2.167233   1.525158   1.409828
    21  C    5.768872   2.169959   4.213526   1.538357   3.889208
    22  C    5.191864   4.116357   2.149963   3.814258   1.406305
    23  C    3.607602   3.313010   3.422541   2.592043   2.437355
    24  C    4.039715   4.828249   3.406793   4.346953   2.433793
    25  H    4.964920   3.095680   4.684051   2.211843   4.190632
    26  H    3.421726   3.610691   4.325578   2.830806   3.421498
    27  H    4.206180   5.893024   4.296003   5.427451   3.412449
    28  C    3.055961   4.513628   3.896906   3.876406   2.815492
                   16         17         18         19         20
    16  H    0.000000
    17  H    3.037510   0.000000
    18  H    4.730424   6.367220   0.000000
    19  H    2.432869   1.714487   6.820280   0.000000
    20  C    2.105795   2.997314   3.421112   3.534027   0.000000
    21  C    2.148965   1.071879   6.005432   1.086647   2.615084
    22  C    4.014443   5.391343   1.080579   5.936923   2.446956
    23  C    3.250073   3.172463   3.898138   4.079846   1.416613
    24  C    4.705697   5.491114   2.162979   6.270439   2.826407
    25  H    2.616343   1.740826   6.179064   1.751384   2.853554
    26  H    3.565533   2.665721   4.977063   3.719855   2.175062
    27  H    5.752956   6.521361   2.489089   7.334919   3.907962
    28  C    4.407659   4.548451   3.419869   5.484811   2.454170
                   21         22         23         24         25
    21  C    0.000000
    22  C    5.058061   0.000000
    23  C    3.016692   2.817640   0.000000
    24  C    5.272479   1.404927   2.441351   0.000000
    25  H    1.087305   5.180929   2.847379   5.171557   0.000000
    26  H    2.660575   3.896606   1.079191   3.412755   2.274099
    27  H    6.328469   2.157136   3.422351   1.081718   6.170039
    28  C    4.427896   2.438846   1.414141   1.408039   4.174340
                   26         27         28
    26  H    0.000000
    27  H    4.305973   0.000000
    28  C    2.155989   2.162367   0.000000
 Stoichiometry    C11H15NO
 Framework group  C1[X(C11H15NO)]
 Deg. of freedom    78
 Full point group                 C1      NOp   1
 Largest Abelian subgroup         C1      NOp   1
 Largest concise Abelian subgroup C1      NOp   1
                         Standard orientation:                         
 ---------------------------------------------------------------------
 Center     Atomic      Atomic             Coordinates (Angstroms)
 Number     Number       Type             X           Y           Z
 ---------------------------------------------------------------------
      1          1           0        4.765610   -0.431169   -1.655262
      2          6           0        3.967022   -1.057637   -1.258635
      3          1           0        4.397216   -1.945034   -0.794662
      4          1           0        3.302861   -1.358130   -2.069644
      5          6           0        3.137996   -0.296534   -0.196348
      6          8           0        3.426534    0.866329    0.092159
      7          1           0        1.662664    0.284971    2.003349
      8          1           0        0.813136   -1.243902    1.960452
      9          6           0        1.166957   -0.423079    1.336082
     10          7           0        2.122159   -0.957720    0.372760
     11          1           0        2.007695   -1.938232    0.120085
     12          1           0       -4.477532    0.068468   -0.038849
     13          1           0       -3.041982    2.094445   -0.963009
     14          6           0       -3.645218   -0.480046   -0.481575
     15          6           0       -2.216596    1.578966   -0.490903
     16          1           0       -3.763845   -0.361245   -1.556166
     17          1           0       -3.894086   -2.122636    0.915069
     18          1           0       -0.920312    3.297937   -0.606628
     19          1           0       -4.625373   -2.428209   -0.605230
     20          6           0       -2.343280    0.225613   -0.116734
     21          6           0       -3.755301   -1.975392   -0.137539
     22          6           0       -1.007458    2.268433   -0.290119
     23          6           0       -1.245928   -0.426263    0.497815
     24          6           0        0.085455    1.610360    0.298355
     25          1           0       -2.886913   -2.557352   -0.436633
     26          1           0       -1.314293   -1.463268    0.788673
     27          1           0        1.019672    2.138050    0.435814
     28          6           0       -0.028966    0.265365    0.698940
 ---------------------------------------------------------------------
 Rotational constants (GHZ):      1.4468457      0.3907028      0.3415292
 Standard basis: 6-31G(d) (6D, 7F)
 There are   225 symmetry adapted cartesian basis functions of A   symmetry.
 There are   225 symmetry adapted basis functions of A   symmetry.
   225 basis functions,   424 primitive gaussians,   225 cartesian basis functions
    48 alpha electrons       48 beta electrons
       nuclear repulsion energy       751.0713720218 Hartrees.
 NAtoms=   28 NActive=   28 NUniq=   28 SFac= 1.00D+00 NAtFMM=   60 NAOKFM=F Big=F
 Integral buffers will be    131072 words long.
 Raffenetti 1 integral format.
 Two-electron integral symmetry is turned on.
 One-electron integrals computed using PRISM.
 NBasis=   225 RedAO= T EigKep=  4.72D-04  NBF=   225
 NBsUse=   225 1.00D-06 EigRej= -1.00D+00 NBFU=   225
 ExpMin= 1.61D-01 ExpMax= 5.48D+03 ExpMxC= 8.25D+02 IAcc=1 IRadAn=         1 AccDes= 0.00D+00
 Harris functional with IExCor=  205 and IRadAn=       1 diagonalized for initial guess.
 HarFok:  IExCor=  205 AccDes= 0.00D+00 IRadAn=         1 IDoV= 1 UseB2=F ITyADJ=14
 ICtDFT=  3500011 ScaDFX=  1.000000  1.000000  1.000000  1.000000
 FoFCou: FMM=F IPFlag=           0 FMFlag=      100000 FMFlg1=           0
         NFxFlg=           0 DoJE=T BraDBF=F KetDBF=T FulRan=T
         wScrn=  0.000000 ICntrl=     500 IOpCl=  0 I1Cent=   200000004 NGrid=           0
         NMat0=    1 NMatS0=      1 NMatT0=    0 NMatD0=    1 NMtDS0=    0 NMtDT0=    0
 Petite list used in FoFCou.
 Keep R1 ints in memory in canonical form, NReq=329172988.
 Requested convergence on RMS density matrix=1.00D-08 within 128 cycles.
 Requested convergence on MAX density matrix=1.00D-06.
 Requested convergence on             energy=1.00D-06.
 No special actions if energy rises.
 SCF Done:  E(RHF) =  -554.612321959     A.U. after   14 cycles
            NFock= 14  Conv=0.68D-08     -V/T= 2.0023

 **********************************************************************

            Population analysis using the SCF density.

 **********************************************************************

 Orbital symmetries:
 BldTbl:  Degeneracy threshold= 1.00D-02
       Occupied  (A) (A) (A) (A) (A) (A) (A) (A) (A) (A) (A) (A)
                 (A) (A) (A) (A) (A) (A) (A) (A) (A) (A) (A) (A)
                 (A) (A) (A) (A) (A) (A) (A) (A) (A) (A) (A) (A)
                 (A) (A) (A) (A) (A) (A) (A) (A) (A) (A) (A) (A)
       Virtual   (A) (A) (A) (A) (A) (A) (A) (A) (A) (A) (A) (A)
                 (A) (A) (A) (A) (A) (A) (A) (A) (A) (A) (A) (A)
                 (A) (A) (A) (A) (A) (A) (A) (A) (A) (A) (A) (A)
                 (A) (A) (A) (A) (A) (A) (A) (A) (A) (A) (A) (A)
                 (A) (A) (A) (A) (A) (A) (A) (A) (A) (A) (A) (A)
                 (A) (A) (A) (A) (A) (A) (A) (A) (A) (A) (A) (A)
                 (A) (A) (A) (A) (A) (A) (A) (A) (A) (A) (A) (A)
                 (A) (A) (A) (A) (A) (A) (A) (A) (A) (A) (A) (A)
                 (A) (A) (A) (A) (A) (A) (A) (A) (A) (A) (A) (A)
                 (A) (A) (A) (A) (A) (A) (A) (A) (A) (A) (A) (A)
                 (A) (A) (A) (A) (A) (A) (A) (A) (A) (A) (A) (A)
                 (A) (A) (A) (A) (A) (A) (A) (A) (A) (A) (A) (A)
                 (A) (A) (A) (A) (A) (A) (A) (A) (A) (A) (A) (A)
                 (A) (A) (A) (A) (A) (A) (A) (A) (A) (A) (A) (A)
                 (A) (A) (A) (A) (A) (A) (A) (A) (A)
 The electronic state is 1-A.
 Alpha  occ. eigenvalues --  -20.51148 -15.59133 -11.34771 -11.27314 -11.24301
 Alpha  occ. eigenvalues --  -11.23891 -11.23611 -11.23207 -11.23152 -11.23074
 Alpha  occ. eigenvalues --  -11.22733 -11.22267 -11.21797  -1.36291  -1.23100
 Alpha  occ. eigenvalues --   -1.14109  -1.06223  -1.03096  -0.99292  -0.97777
 Alpha  occ. eigenvalues --   -0.92475  -0.87102  -0.80877  -0.78155  -0.77130
 Alpha  occ. eigenvalues --   -0.68683  -0.67978  -0.64589  -0.63611  -0.62344
 Alpha  occ. eigenvalues --   -0.61630  -0.60486  -0.58993  -0.57369  -0.56340
 Alpha  occ. eigenvalues --   -0.55824  -0.54513  -0.52243  -0.51426  -0.51282
 Alpha  occ. eigenvalues --   -0.50566  -0.47710  -0.46890  -0.46769  -0.40702
 Alpha  occ. eigenvalues --   -0.38396  -0.32329  -0.31057
 Alpha virt. eigenvalues --    0.13761   0.14781   0.20598   0.21043   0.23898
 Alpha virt. eigenvalues --    0.25973   0.26548   0.27872   0.28526   0.29393
 Alpha virt. eigenvalues --    0.31072   0.31345   0.31906   0.32960   0.33233
 Alpha virt. eigenvalues --    0.34214   0.34672   0.36810   0.37546   0.39633
 Alpha virt. eigenvalues --    0.39760   0.42338   0.44110   0.44769   0.49007
 Alpha virt. eigenvalues --    0.49627   0.52370   0.53592   0.56831   0.58906
 Alpha virt. eigenvalues --    0.62006   0.71951   0.72431   0.72854   0.74435
 Alpha virt. eigenvalues --    0.74803   0.75698   0.77311   0.77643   0.78551
 Alpha virt. eigenvalues --    0.80363   0.80604   0.82592   0.83402   0.84202
 Alpha virt. eigenvalues --    0.84300   0.85111   0.86466   0.89636   0.90426
 Alpha virt. eigenvalues --    0.92394   0.94137   0.95154   0.96730   0.99658
 Alpha virt. eigenvalues --    1.00231   1.02234   1.03547   1.05175   1.07525
 Alpha virt. eigenvalues --    1.09209   1.09735   1.11793   1.12342   1.12693
 Alpha virt. eigenvalues --    1.14278   1.14714   1.15079   1.16051   1.17152
 Alpha virt. eigenvalues --    1.17717   1.17977   1.19308   1.20535   1.21107
 Alpha virt. eigenvalues --    1.21440   1.22115   1.24317   1.25651   1.26570
 Alpha virt. eigenvalues --    1.29714   1.33279   1.36296   1.36780   1.39298
 Alpha virt. eigenvalues --    1.41311   1.43943   1.45550   1.50633   1.52015
 Alpha virt. eigenvalues --    1.53074   1.57915   1.58973   1.62250   1.64422
 Alpha virt. eigenvalues --    1.64864   1.69319   1.72471   1.74826   1.75743
 Alpha virt. eigenvalues --    1.77626   1.78830   1.82336   1.82934   1.92483
 Alpha virt. eigenvalues --    1.94962   1.96183   2.00587   2.06141   2.08367
 Alpha virt. eigenvalues --    2.10824   2.11183   2.12964   2.13178   2.14820
 Alpha virt. eigenvalues --    2.16422   2.17695   2.22100   2.24422   2.25724
 Alpha virt. eigenvalues --    2.27215   2.28280   2.29456   2.32689   2.34354
 Alpha virt. eigenvalues --    2.36653   2.37851   2.40828   2.45727   2.48301
 Alpha virt. eigenvalues --    2.49782   2.51342   2.51733   2.53128   2.54432
 Alpha virt. eigenvalues --    2.59858   2.61042   2.61932   2.65194   2.66058
 Alpha virt. eigenvalues --    2.67718   2.70026   2.72123   2.73433   2.76019
 Alpha virt. eigenvalues --    2.79690   2.81038   2.89828   2.91903   2.95761
 Alpha virt. eigenvalues --    2.98246   2.99194   3.04140   3.06935   3.12203
 Alpha virt. eigenvalues --    3.13176   3.17906   3.18825   3.23403   3.27968
 Alpha virt. eigenvalues --    3.34529   3.46079   3.53700   3.76416   4.39500
 Alpha virt. eigenvalues --    4.46669   4.51932   4.54587   4.58254   4.62476
 Alpha virt. eigenvalues --    4.63253   4.74468   4.77085   4.81334   4.89682
 Alpha virt. eigenvalues --    4.93145   5.16136
          Condensed to atoms (all electrons):
               1          2          3          4          5          6
     1  H    0.453980   0.385261  -0.018961  -0.018551  -0.028930   0.003731
     2  C    0.385261   5.257498   0.371672   0.373555   0.372531  -0.069226
     3  H   -0.018961   0.371672   0.521523  -0.024714  -0.033877   0.001302
     4  H   -0.018551   0.373555  -0.024714   0.513310  -0.034197   0.001179
     5  C   -0.028930   0.372531  -0.033877  -0.034197   4.178469   0.594611
     6  O    0.003731  -0.069226   0.001302   0.001179   0.594611   8.190949
     7  H    0.000001   0.000110  -0.000012  -0.000001  -0.000030   0.003381
     8  H    0.000001  -0.000013  -0.000005  -0.000004   0.003019   0.000276
     9  C   -0.000061   0.003714  -0.000149  -0.000190  -0.016228   0.008519
    10  N    0.003471  -0.117651   0.003742   0.003793   0.239040  -0.102976
    11  H   -0.000001  -0.000295   0.000658   0.000368  -0.021318   0.002491
    12  H    0.000000   0.000000   0.000000   0.000000   0.000000   0.000000
    13  H    0.000000   0.000000   0.000000   0.000000   0.000000   0.000000
    14  C    0.000000   0.000000   0.000000   0.000000   0.000000   0.000000
    15  C    0.000000   0.000000   0.000000   0.000000  -0.000002   0.000000
    16  H    0.000000   0.000000   0.000000   0.000000   0.000000   0.000000
    17  H    0.000000   0.000000   0.000000   0.000000   0.000000   0.000000
    18  H    0.000000   0.000000   0.000000   0.000000   0.000001  -0.000003
    19  H    0.000000   0.000000   0.000000   0.000000   0.000000   0.000000
    20  C    0.000000   0.000000   0.000000   0.000000  -0.000006   0.000000
    21  C    0.000000   0.000000   0.000000   0.000000   0.000000   0.000000
    22  C    0.000000   0.000001   0.000000   0.000000   0.000020   0.000088
    23  C    0.000000  -0.000013   0.000000   0.000003  -0.000058  -0.000031
    24  C    0.000001   0.000019  -0.000001  -0.000002   0.002479  -0.001119
    25  H    0.000000   0.000000   0.000000   0.000000   0.000000   0.000000
    26  H    0.000000   0.000000   0.000000   0.000000   0.000006   0.000000
    27  H   -0.000001   0.000099  -0.000001  -0.000008   0.000004   0.007146
    28  C    0.000004  -0.000303   0.000002   0.000059  -0.003087  -0.003072
               7          8          9         10         11         12
     1  H    0.000001   0.000001  -0.000061   0.003471  -0.000001   0.000000
     2  C    0.000110  -0.000013   0.003714  -0.117651  -0.000295   0.000000
     3  H   -0.000012  -0.000005  -0.000149   0.003742   0.000658   0.000000
     4  H   -0.000001  -0.000004  -0.000190   0.003793   0.000368   0.000000
     5  C   -0.000030   0.003019  -0.016228   0.239040  -0.021318   0.000000
     6  O    0.003381   0.000276   0.008519  -0.102976   0.002491   0.000000
     7  H    0.469343  -0.022855   0.410916  -0.038825   0.002564   0.000000
     8  H   -0.022855   0.517903   0.414758  -0.041464  -0.003720   0.000000
     9  C    0.410916   0.414758   4.921489   0.180394  -0.023359   0.000002
    10  N   -0.038825  -0.041464   0.180394   7.398320   0.322961   0.000000
    11  H    0.002564  -0.003720  -0.023359   0.322961   0.335880   0.000000
    12  H    0.000000   0.000000   0.000002   0.000000   0.000000   0.540648
    13  H    0.000000   0.000000   0.000006   0.000000   0.000000   0.001135
    14  C    0.000001  -0.000004  -0.000095   0.000001   0.000000   0.396632
    15  C   -0.000008  -0.000010   0.000293   0.000011  -0.000001  -0.003735
    16  H    0.000000   0.000000   0.000001   0.000000   0.000000  -0.034243
    17  H    0.000000   0.000000  -0.000001   0.000000   0.000000  -0.004545
    18  H   -0.000002   0.000002  -0.000109   0.000002   0.000000   0.000000
    19  H    0.000000   0.000000   0.000000   0.000000   0.000000  -0.001291
    20  C   -0.000023   0.000108   0.002166   0.000039   0.000005  -0.041936
    21  C    0.000000  -0.000002   0.000000   0.000000   0.000000  -0.033789
    22  C    0.000065  -0.000053   0.002447  -0.000044   0.000000   0.000009
    23  C    0.002464  -0.001556  -0.038054   0.000200   0.000608   0.000932
    24  C   -0.002750   0.003066  -0.042287  -0.002252  -0.000002   0.000005
    25  H    0.000000  -0.000003   0.000006   0.000000   0.000000   0.003819
    26  H    0.000005   0.002368  -0.002057   0.000199   0.000029  -0.000007
    27  H    0.000958  -0.000003  -0.001091  -0.000694  -0.000015   0.000000
    28  C   -0.046160  -0.055663   0.334548  -0.073521   0.001817  -0.000070
              13         14         15         16         17         18
     1  H    0.000000   0.000000   0.000000   0.000000   0.000000   0.000000
     2  C    0.000000   0.000000   0.000000   0.000000   0.000000   0.000000
     3  H    0.000000   0.000000   0.000000   0.000000   0.000000   0.000000
     4  H    0.000000   0.000000   0.000000   0.000000   0.000000   0.000000
     5  C    0.000000   0.000000  -0.000002   0.000000   0.000000   0.000001
     6  O    0.000000   0.000000   0.000000   0.000000   0.000000  -0.000003
     7  H    0.000000   0.000001  -0.000008   0.000000   0.000000  -0.000002
     8  H    0.000000  -0.000004  -0.000010   0.000000   0.000000   0.000002
     9  C    0.000006  -0.000095   0.000293   0.000001  -0.000001  -0.000109
    10  N    0.000000   0.000001   0.000011   0.000000   0.000000   0.000002
    11  H    0.000000   0.000000  -0.000001   0.000000   0.000000   0.000000
    12  H    0.001135   0.396632  -0.003735  -0.034243  -0.004545   0.000000
    13  H    0.482474  -0.001440   0.384002   0.001074   0.000000  -0.001256
    14  C   -0.001440   5.047833  -0.054168   0.401673  -0.036889  -0.000107
    15  C    0.384002  -0.054168   4.946428  -0.005904  -0.000063  -0.030684
    16  H    0.001074   0.401673  -0.005904   0.546581   0.004311  -0.000001
    17  H    0.000000  -0.036889  -0.000063   0.004311   0.539251   0.000000
    18  H   -0.001256  -0.000107  -0.030684  -0.000001   0.000000   0.471649
    19  H   -0.000002  -0.033336  -0.000043  -0.004103  -0.030968   0.000000
    20  C   -0.035980   0.340100   0.560108  -0.045575  -0.001291   0.001963
    21  C    0.000025   0.337254   0.002757  -0.039248   0.393363   0.000001
    22  C   -0.030090   0.002118   0.543599   0.000023   0.000000   0.380850
    23  C    0.002513  -0.037995  -0.041027   0.000774   0.000252   0.000306
    24  C    0.002432   0.000249  -0.047466   0.000035   0.000000  -0.027586
    25  H    0.000004  -0.035836   0.000027  -0.002175  -0.031414   0.000000
    26  H   -0.000104  -0.003350   0.002500   0.000063   0.000156   0.000010
    27  H   -0.000095   0.000005   0.002179   0.000000   0.000000  -0.001001
    28  C    0.000170   0.002710  -0.030441  -0.000082  -0.000053   0.002112
              19         20         21         22         23         24
     1  H    0.000000   0.000000   0.000000   0.000000   0.000000   0.000001
     2  C    0.000000   0.000000   0.000000   0.000001  -0.000013   0.000019
     3  H    0.000000   0.000000   0.000000   0.000000   0.000000  -0.000001
     4  H    0.000000   0.000000   0.000000   0.000000   0.000003  -0.000002
     5  C    0.000000  -0.000006   0.000000   0.000020  -0.000058   0.002479
     6  O    0.000000   0.000000   0.000000   0.000088  -0.000031  -0.001119
     7  H    0.000000  -0.000023   0.000000   0.000065   0.002464  -0.002750
     8  H    0.000000   0.000108  -0.000002  -0.000053  -0.001556   0.003066
     9  C    0.000000   0.002166   0.000000   0.002447  -0.038054  -0.042287
    10  N    0.000000   0.000039   0.000000  -0.000044   0.000200  -0.002252
    11  H    0.000000   0.000005   0.000000   0.000000   0.000608  -0.000002
    12  H   -0.001291  -0.041936  -0.033789   0.000009   0.000932   0.000005
    13  H   -0.000002  -0.035980   0.000025  -0.030090   0.002513   0.002432
    14  C   -0.033336   0.340100   0.337254   0.002118  -0.037995   0.000249
    15  C   -0.000043   0.560108   0.002757   0.543599  -0.041027  -0.047466
    16  H   -0.004103  -0.045575  -0.039248   0.000023   0.000774   0.000035
    17  H   -0.030968  -0.001291   0.393363   0.000000   0.000252   0.000000
    18  H    0.000000   0.001963   0.000001   0.380850   0.000306  -0.027586
    19  H    0.527555   0.003372   0.397140   0.000001   0.000186   0.000000
    20  C    0.003372   4.796131  -0.044647  -0.037082   0.566210  -0.031424
    21  C    0.397140  -0.044647   5.100090  -0.000030  -0.007346  -0.000009
    22  C    0.000001  -0.037082  -0.000030   4.900532  -0.034762   0.533428
    23  C    0.000186   0.566210  -0.007346  -0.034762   4.960514  -0.042753
    24  C    0.000000  -0.031424  -0.000009   0.533428  -0.042753   4.948257
    25  H   -0.027623  -0.001864   0.392175  -0.000006   0.000033  -0.000005
    26  H    0.000057  -0.026591   0.000279   0.000056   0.379328   0.002682
    27  H    0.000000   0.000203   0.000000  -0.026840   0.002141   0.375188
    28  C    0.000004  -0.040331  -0.000127  -0.042011   0.545069   0.559982
              25         26         27         28
     1  H    0.000000   0.000000  -0.000001   0.000004
     2  C    0.000000   0.000000   0.000099  -0.000303
     3  H    0.000000   0.000000  -0.000001   0.000002
     4  H    0.000000   0.000000  -0.000008   0.000059
     5  C    0.000000   0.000006   0.000004  -0.003087
     6  O    0.000000   0.000000   0.007146  -0.003072
     7  H    0.000000   0.000005   0.000958  -0.046160
     8  H   -0.000003   0.002368  -0.000003  -0.055663
     9  C    0.000006  -0.002057  -0.001091   0.334548
    10  N    0.000000   0.000199  -0.000694  -0.073521
    11  H    0.000000   0.000029  -0.000015   0.001817
    12  H    0.003819  -0.000007   0.000000  -0.000070
    13  H    0.000004  -0.000104  -0.000095   0.000170
    14  C   -0.035836  -0.003350   0.000005   0.002710
    15  C    0.000027   0.002500   0.002179  -0.030441
    16  H   -0.002175   0.000063   0.000000  -0.000082
    17  H   -0.031414   0.000156   0.000000  -0.000053
    18  H    0.000000   0.000010  -0.001001   0.002112
    19  H   -0.027623   0.000057   0.000000   0.000004
    20  C   -0.001864  -0.026591   0.000203  -0.040331
    21  C    0.392175   0.000279   0.000000  -0.000127
    22  C   -0.000006   0.000056  -0.026840  -0.042011
    23  C    0.000033   0.379328   0.002141   0.545069
    24  C   -0.000005   0.002682   0.375188   0.559982
    25  H    0.541783   0.000074   0.000000  -0.000095
    26  H    0.000074   0.485914  -0.000100  -0.035486
    27  H    0.000000  -0.000100   0.426417  -0.027912
    28  C   -0.000095  -0.035486  -0.027912   4.877259
 Mulliken charges:
               1
     1  H    0.220056
     2  C   -0.576958
     3  H    0.178819
     4  H    0.185399
     5  C    0.747553
     6  O   -0.637246
     7  H    0.220857
     8  H    0.183855
     9  C   -0.155579
    10  N   -0.774746
    11  H    0.381329
    12  H    0.176436
    13  H    0.195133
    14  C   -0.325354
    15  C   -0.228349
    16  H    0.176798
    17  H    0.167890
    18  H    0.203854
    19  H    0.169051
    20  C    0.036346
    21  C   -0.497886
    22  C   -0.192318
    23  C   -0.257940
    24  C   -0.230167
    25  H    0.161100
    26  H    0.193967
    27  H    0.243421
    28  C    0.034680
 Sum of Mulliken charges =   0.00000
 Mulliken charges with hydrogens summed into heavy atoms:
               1
     2  C    0.007316
     5  C    0.747553
     6  O   -0.637246
     9  C    0.249133
    10  N   -0.393417
    14  C    0.027880
    15  C   -0.033216
    20  C    0.036346
    21  C    0.000156
    22  C    0.011536
    23  C   -0.063973
    24  C    0.013254
    28  C    0.034680
 DipInt: DoE/N= T F RetVal/Mat= T F Init=T NMatP=  1 IDeriv=0 Min/MaxMlt=  0  4
 Entering OneElI...
 OneElI was handed  2147351220 working-precision words.
 Multipole integrals L=0 to 4 MinM= 0 MaxM= 0.
 Requested accuracy = 0.1000D-12
 ShPair: Thresh= 1.00D-13 NBox=     0 BxSize= 0.00D+00 RnKept= 1.83D+01
         NSMCal=                 3403 NSMKep=                2902
 PrsmSu:  NPrtUS=   1 ThrOK=F IAlg=1 NPAlg=1 LenDen=           0.
 Prism:   IPart=     0 DynPar=F LinDyn=F Incr=          29.
 PRISM was handed  2147105604 working-precision words and  2902 shell-pairs
 IPart=  0 NShTot=        2902 NBatch=          47 AvBLen=        61.7
 PrSmSu:  NxtVal=             30.
 Electronic moments (au):
        -96.00000000         -0.70429120         -1.49062135         -0.24098148
      -2494.81001943       -622.30831932       -241.90729876         -8.11798423
         -0.78452827         -1.31068904       -547.20556616       -371.21800626
        -11.21537622       1002.01603081       2433.21319290       1763.63170487
       -407.60998172        165.05413419        210.94746923       -362.05495127
    -116087.63572865     -10287.91568415      -2159.39987473      -6784.98656526
       4992.33635405      -1080.29439169        284.60077677        586.66816608
       -141.29683052     -15784.36545489      -6738.03832601      -1259.07046644
      -2640.58418747       -211.70184127        922.62342818
 Electronic spatial extent (au):  <R**2>=           3359.0256
 DipInt: DoE/N= F T RetVal/Mat= T F Init=T NMatP=  1 IDeriv=0 Min/MaxMlt=  0  4
 Nuclear    moments (au):
         96.00000000          0.00000000          0.00000000          0.00000000
       2434.51895085        567.78582392        183.65334466          0.00000000
          0.00000000          0.00000000        518.52064548        369.65594332
         12.76366503       -994.81983668      -2487.23868382      -1794.69297912
        427.37655366       -170.30008401       -216.22853854        370.15358958
     107195.18363403       8183.56508128       1302.97383313       6446.67750201
      -5110.54301931       1010.34113674       -335.88581096       -581.61266280
        138.71601808      13920.80716018       5146.61836184        729.92858797
       2628.37656205        241.95428662       -908.81630667
 Total      moments (au):
          0.00000000         -0.70429120         -1.49062135         -0.24098148
        -60.29106858        -54.52249541        -58.25395409         -8.11798423
         -0.78452827         -1.31068904        -28.68492068         -1.56206294
          1.54828880          7.19619413        -54.02549091        -31.06127425
         19.76657194         -5.24594981         -5.28106931          8.09863831
      -8892.45209462      -2104.35060287       -856.42604160       -338.30906325
       -118.20666526        -69.95325495        -51.28503419          5.05550327
         -2.58081244      -1863.55829471      -1591.41996417       -529.14187847
        -12.20762542         30.25244535         13.80712151
 Traceless Quadrup. (au):
         -2.60189589          3.16667729         -0.56478140         -8.11798423
         -0.78452827         -1.31068904
 Charge=              0.0000 electrons
 Dipole moment (field-independent basis, Debye):
    X=             -1.7901    Y=             -3.7888    Z=             -0.6125  Tot=              4.2349
 Quadrupole moment (field-independent basis, Debye-Ang):
   XX=            -81.0935   YY=            -73.3346   ZZ=            -78.3536
   XY=            -10.9190   XZ=             -1.0552   YZ=             -1.7629
 Traceless Quadrupole moment (field-independent basis, Debye-Ang):
   XX=             -3.4996   YY=              4.2593   ZZ=             -0.7597
   XY=            -10.9190   XZ=             -1.0552   YZ=             -1.7629
 Octapole moment (field-independent basis, Debye-Ang**2):
  XXX=            -20.4168  YYY=             -1.1118  ZZZ=              1.1020  XYY=              5.1220
  XXY=            -38.4533  XXZ=            -22.1082  XZZ=             14.0691  YZZ=             -3.7339
  YYZ=             -3.7589  XYZ=              5.7643
 Hexadecapole moment (field-independent basis, Debye-Ang**3):
 XXXX=          -3349.3236 YYYY=           -792.5993 ZZZZ=           -322.5711 XXXY=           -127.4234
 XXXZ=            -44.5223 YYYX=            -26.3477 YYYZ=            -19.3164 ZZZX=              1.9041
 ZZZY=             -0.9721 XXYY=           -701.9054 XXZZ=           -599.4050 YYZZ=           -199.3002
 XXYZ=             -4.5980 YYXZ=             11.3945 ZZXY=              5.2004
 N-N= 7.510713720218D+02 E-N=-2.796748215189D+03  KE= 5.533359356214D+02
 Entering OneElI...
 OneElI was handed  2147375720 working-precision words.
 Calculate electrostatic properties
    NBasis =   225  MinDer = 0  MaxDer = 0
    NGrid  =    28  NMatD  =   1
 Requested accuracy = 0.1000D-12
 PrtBox:  NBox=     1 Levels=  1 BoxLen=   29.89 SMaxX=       17.75
          Shift=            8.740687            4.832695            3.911061
 Box      1 Number                   0 centers from      1 to     82:
 ShPair: Thresh= 1.00D-13 NBox=     1 BxSize= 2.99D+01 RnKept= 1.66D+01
         NSMCal=                 3403 NSMKep=                2626
 PrsmSu:  NPrtUS=   4 ThrOK=T IAlg=1 NPAlg=1 LenDen=           0.
 Prism:   IPart=     0 DynPar=F LinDyn=F Incr=         183.
 PRISM was handed   536728217 working-precision words and  2626 shell-pairs
 PRISM was handed   536728217 working-precision words and  2626 shell-pairs
 PRISM was handed   536728217 working-precision words and  2626 shell-pairs
 PRISM was handed   536728217 working-precision words and  2626 shell-pairs
 IPart=  3 NShTot=       17948 NBatch=         641 AvBLen=        28.0
 IPart=  0 NShTot=       18900 NBatch=         675 AvBLen=        28.0
 IPart=  1 NShTot=       18536 NBatch=         662 AvBLen=        28.0
 IPart=  2 NShTot=       18144 NBatch=         648 AvBLen=        28.0
 PrSmSu:  NxtVal=            733.
 --------------------------------------------------------
       Center         ----      EFG at Nuclei      ----
                      3XX-RR        3YY-RR        3ZZ-RR
 --------------------------------------------------------
     1   Atom       -0.092079      0.001083      0.090996
     2   Atom        0.002877      0.029611     -0.032488
     3   Atom        0.082698     -0.151670      0.068972
     4   Atom       -0.019564      0.120686     -0.101122
     5   Atom       -0.089885      0.239229     -0.149343
     6   Atom        0.622825     -0.946242      0.323418
     7   Atom        0.051774     -0.033928     -0.017846
     8   Atom        0.100901     -0.108463      0.007562
     9   Atom       -0.041733      0.114627     -0.072895
    10   Atom        0.044806     -0.403971      0.359165
    11   Atom        0.169547     -0.330187      0.160640
    12   Atom       -0.114089      0.032857      0.081231
    13   Atom       -0.122706      0.043925      0.078781
    14   Atom       -0.019562     -0.023071      0.042633
    15   Atom        0.094752      0.124219     -0.218971
    16   Atom        0.150290      0.143938     -0.294229
    17   Atom        0.165416      0.156885     -0.322301
    18   Atom        0.148614     -0.274799      0.126185
    19   Atom       -0.143030      0.073161      0.069869
    20   Atom        0.087158      0.159179     -0.246337
    21   Atom        0.011446     -0.043458      0.032012
    22   Atom        0.152940      0.105988     -0.258927
    23   Atom        0.119307      0.073431     -0.192737
    24   Atom        0.119788      0.113348     -0.233135
    25   Atom       -0.144440      0.021046      0.123394
    26   Atom        0.148374     -0.284360      0.135986
    27   Atom       -0.186208      0.033495      0.152714
    28   Atom        0.097798      0.150649     -0.248448
 --------------------------------------------------------
                        XY            XZ            YZ
 --------------------------------------------------------
     1   Atom       -0.190394      0.122613      0.093170
     2   Atom        0.049946      0.035523     -0.032943
     3   Atom        0.149826     -0.070447      0.158964
     4   Atom       -0.076850     -0.202645     -0.098023
     5   Atom        0.124718     -0.340761      0.251212
     6   Atom       -0.161055     -1.217135     -0.009263
     7   Atom       -0.121956     -0.119572     -0.176937
     8   Atom       -0.103427      0.089051      0.190251
     9   Atom        0.131028      0.190661     -0.062163
    10   Atom       -0.223029      0.705158     -0.326948
    11   Atom       -0.071992      0.024280     -0.140732
    12   Atom        0.169275      0.143053     -0.092572
    13   Atom        0.165843     -0.162847      0.102609
    14   Atom       -0.027835     -0.023779      0.003116
    15   Atom        0.069445      0.117101     -0.100444
    16   Atom       -0.000410     -0.051408      0.049378
    17   Atom       -0.008491      0.063116      0.067700
    18   Atom       -0.037783      0.005131      0.136066
    19   Atom       -0.154219     -0.165766     -0.081680
    20   Atom        0.028735      0.162322     -0.141476
    21   Atom       -0.003383      0.000604      0.008940
    22   Atom        0.043555      0.163232     -0.135930
    23   Atom        0.039993      0.131847     -0.103040
    24   Atom        0.039791      0.140768     -0.132296
    25   Atom        0.196798      0.104190     -0.067873
    26   Atom       -0.030623     -0.001339      0.128859
    27   Atom       -0.195823     -0.058931     -0.021504
    28   Atom        0.077443      0.116116     -0.125968
 --------------------------------------------------------


 ---------------------------------------------------------------------------------
              Nuclear Quadrupole Coupling Constant in Principal Axis System
 ---------------------------------------------------------------------------------

       Atom             a.u.   MegaHertz   Gauss  10(-4) cm-1        Axes

              Baa    -0.5461     2.623     0.936     0.875 -0.4821  0.6342  0.6045
    10 N(14)  Bbb    -0.4868     2.338     0.834     0.780  0.6393  0.7264 -0.2522
              Bcc     1.0329    -4.961    -1.770    -1.655  0.5991 -0.2649  0.7556
 

 ---------------------------------------------------------------------------------

 No NMR shielding tensors so no spin-rotation constants.
 Leave Link  601 at Wed Nov 29 20:16:19 2017, MaxMem=  2147483648 cpu:         0.4
 FitSet:  NAtFit=    28 NAtPot=    28 NAtFrz=     0 MDM=    32 TotChg=   0.00000
 Merz-Kollman atomic radii used.
 Atom Element Radius
    1     1    1.20
    2     6    1.50
    3     1    1.20
    4     1    1.20
    5     6    1.50
    6     8    1.40
    7     1    1.20
    8     1    1.20
    9     6    1.50
   10     7    1.50
   11     1    1.20
   12     1    1.20
   13     1    1.20
   14     6    1.50
   15     6    1.50
   16     1    1.20
   17     1    1.20
   18     1    1.20
   19     1    1.20
   20     6    1.50
   21     6    1.50
   22     6    1.50
   23     6    1.50
   24     6    1.50
   25     1    1.20
   26     1    1.20
   27     1    1.20
   28     6    1.50
 Generate VDW surfaces: Layer= 4 Dens= 6 Start= 1.400 Inc= 0.200

 **********************************************************************

            Electrostatic Properties Using The SCF Density

 **********************************************************************

       Atomic Center    1 is at   4.765610 -0.431169 -1.655262
       Atomic Center    2 is at   3.967022 -1.057637 -1.258635
       Atomic Center    3 is at   4.397216 -1.945034 -0.794662
       Atomic Center    4 is at   3.302861 -1.358130 -2.069644
       Atomic Center    5 is at   3.137996 -0.296534 -0.196348
       Atomic Center    6 is at   3.426534  0.866329  0.092159
       Atomic Center    7 is at   1.662664  0.284971  2.003349
       Atomic Center    8 is at   0.813136 -1.243902  1.960452
       Atomic Center    9 is at   1.166957 -0.423079  1.336082
       Atomic Center   10 is at   2.122159 -0.957720  0.372760
       Atomic Center   11 is at   2.007695 -1.938232  0.120085
       Atomic Center   12 is at  -4.477532  0.068468 -0.038849
       Atomic Center   13 is at  -3.041982  2.094445 -0.963009
       Atomic Center   14 is at  -3.645218 -0.480046 -0.481575
       Atomic Center   15 is at  -2.216596  1.578966 -0.490903
       Atomic Center   16 is at  -3.763845 -0.361245 -1.556166
       Atomic Center   17 is at  -3.894086 -2.122636  0.915069
       Atomic Center   18 is at  -0.920312  3.297937 -0.606628
       Atomic Center   19 is at  -4.625373 -2.428209 -0.605230
       Atomic Center   20 is at  -2.343280  0.225613 -0.116734
       Atomic Center   21 is at  -3.755301 -1.975392 -0.137539
       Atomic Center   22 is at  -1.007458  2.268433 -0.290119
       Atomic Center   23 is at  -1.245928 -0.426263  0.497815
       Atomic Center   24 is at   0.085455  1.610360  0.298355
       Atomic Center   25 is at  -2.886913 -2.557352 -0.436633
       Atomic Center   26 is at  -1.314293 -1.463268  0.788673
       Atomic Center   27 is at   1.019672  2.138050  0.435814
       Atomic Center   28 is at  -0.028966  0.265365  0.698940
      ESP Fit Center   29 is at   5.493071 -0.011169 -0.200339
      ESP Fit Center   30 is at   5.953549 -0.431169 -0.467323
      ESP Fit Center   31 is at   5.873330 -0.002036 -0.467323
      ESP Fit Center   32 is at   5.643508  0.369141 -0.467323
      ESP Fit Center   33 is at   5.295120  0.632231 -0.467323
      ESP Fit Center   34 is at   6.220532 -0.431169 -0.815262
      ESP Fit Center   35 is at   6.155894 -0.002323 -0.815262
      ESP Fit Center   36 is at   5.967723  0.388418 -0.815262
      ESP Fit Center   37 is at   5.672739  0.706335 -0.815262
      ESP Fit Center   38 is at   5.297153  0.923180 -0.815262
      ESP Fit Center   39 is at   6.155894 -0.860015 -0.815262
      ESP Fit Center   40 is at   6.388365 -0.431169 -1.220446
      ESP Fit Center   41 is at   6.333071 -0.011169 -1.220446
      ESP Fit Center   42 is at   6.170957  0.380209 -1.220446
      ESP Fit Center   43 is at   5.913071  0.716292 -1.220446
      ESP Fit Center   44 is at   5.576987  0.974178 -1.220446
      ESP Fit Center   45 is at   5.185610  1.136292 -1.220446
      ESP Fit Center   46 is at   6.170957 -1.242547 -1.220446
      ESP Fit Center   47 is at   6.333071 -0.851169 -1.220446
      ESP Fit Center   48 is at   6.445610 -0.431169 -1.655262
      ESP Fit Center   49 is at   6.392829 -0.013370 -1.655262
      ESP Fit Center   50 is at   6.237805  0.378177 -1.655262
      ESP Fit Center   51 is at   5.990277  0.718870 -1.655262
      ESP Fit Center   52 is at   5.665799  0.987302 -1.655262
      ESP Fit Center   53 is at   5.284758  1.166606 -1.655262
      ESP Fit Center   54 is at   4.871098  1.245516 -1.655262
      ESP Fit Center   55 is at   4.450809  1.219074 -1.655262
      ESP Fit Center   56 is at   5.990277 -1.581208 -1.655262
      ESP Fit Center   57 is at   6.237805 -1.240515 -1.655262
      ESP Fit Center   58 is at   6.392829 -0.848968 -1.655262
      ESP Fit Center   59 is at   6.388365 -0.431169 -2.090078
      ESP Fit Center   60 is at   6.333071 -0.011169 -2.090078
      ESP Fit Center   61 is at   6.170957  0.380209 -2.090078
      ESP Fit Center   62 is at   5.913071  0.716292 -2.090078
      ESP Fit Center   63 is at   5.576987  0.974178 -2.090078
      ESP Fit Center   64 is at   5.185610  1.136292 -2.090078
      ESP Fit Center   65 is at   4.765610  1.191586 -2.090078
      ESP Fit Center   66 is at   4.345610  1.136292 -2.090078
      ESP Fit Center   67 is at   3.954232  0.974178 -2.090078
      ESP Fit Center   68 is at   5.913071 -1.578630 -2.090078
      ESP Fit Center   69 is at   6.170957 -1.242547 -2.090078
      ESP Fit Center   70 is at   6.333071 -0.851169 -2.090078
      ESP Fit Center   71 is at   6.220532 -0.431169 -2.495262
      ESP Fit Center   72 is at   6.155894 -0.002323 -2.495262
      ESP Fit Center   73 is at   5.967723  0.388418 -2.495262
      ESP Fit Center   74 is at   5.672739  0.706335 -2.495262
      ESP Fit Center   75 is at   5.297153  0.923180 -2.495262
      ESP Fit Center   76 is at   4.874336  1.019685 -2.495262
      ESP Fit Center   77 is at   4.441859  0.987276 -2.495262
      ESP Fit Center   78 is at   4.038148  0.828831 -2.495262
      ESP Fit Center   79 is at   5.672739 -1.568673 -2.495262
      ESP Fit Center   80 is at   5.967723 -1.250756 -2.495262
      ESP Fit Center   81 is at   6.155894 -0.860015 -2.495262
      ESP Fit Center   82 is at   5.953549 -0.431169 -2.843201
      ESP Fit Center   83 is at   5.873330 -0.002036 -2.843201
      ESP Fit Center   84 is at   5.643508  0.369141 -2.843201
      ESP Fit Center   85 is at   5.295120  0.632231 -2.843201
      ESP Fit Center   86 is at   4.875219  0.751703 -2.843201
      ESP Fit Center   87 is at   4.440515  0.711422 -2.843201
      ESP Fit Center   88 is at   4.049716  0.516827 -2.843201
      ESP Fit Center   89 is at   5.295120 -1.494569 -2.843201
      ESP Fit Center   90 is at   5.643508 -1.231479 -2.843201
      ESP Fit Center   91 is at   5.873330 -0.860302 -2.843201
      ESP Fit Center   92 is at   5.605610 -0.431169 -3.110185
      ESP Fit Center   93 is at   5.493071 -0.011169 -3.110185
      ESP Fit Center   94 is at   5.185610  0.296292 -3.110185
      ESP Fit Center   95 is at   4.765610  0.408831 -3.110185
      ESP Fit Center   96 is at   4.345610  0.296292 -3.110185
      ESP Fit Center   97 is at   4.038148 -0.011169 -3.110185
      ESP Fit Center   98 is at   5.185610 -1.158630 -3.110185
      ESP Fit Center   99 is at   5.493071 -0.851169 -3.110185
      ESP Fit Center  100 is at   5.200426 -0.431169 -3.278017
      ESP Fit Center  101 is at   4.983018 -0.054607 -3.278017
      ESP Fit Center  102 is at   4.548202 -0.054607 -3.278017
      ESP Fit Center  103 is at   4.330794 -0.431169 -3.278017
      ESP Fit Center  104 is at   4.548202 -0.807731 -3.278017
      ESP Fit Center  105 is at   4.983018 -0.807731 -3.278017
      ESP Fit Center  106 is at   4.765610 -0.431169 -3.335262
      ESP Fit Center  107 is at   5.133719 -1.057637  0.487451
      ESP Fit Center  108 is at   5.451946 -1.057637  0.226289
      ESP Fit Center  109 is at   5.391796 -0.639286  0.226289
      ESP Fit Center  110 is at   5.216219 -0.254827  0.226289
      ESP Fit Center  111 is at   5.713108 -1.057637 -0.091938
      ESP Fit Center  112 is at   5.662370 -0.639771 -0.091938
      ESP Fit Center  113 is at   5.513104 -0.246191 -0.091938
      ESP Fit Center  114 is at   5.273986  0.100232 -0.091938
      ESP Fit Center  115 is at   5.907169 -1.057637 -0.455000
      ESP Fit Center  116 is at   2.800324 -2.803723 -1.258635
      ESP Fit Center  117 is at   3.163386 -2.997784 -1.258635
      ESP Fit Center  118 is at   3.450765 -3.051536 -1.668325
      ESP Fit Center  119 is at   5.859752 -1.869872 -1.668325
      ESP Fit Center  120 is at   3.653141  0.856951 -2.062271
      ESP Fit Center  121 is at   3.248899  0.744714 -2.062271
      ESP Fit Center  122 is at   5.511559 -2.231764 -2.062271
      ESP Fit Center  123 is at   5.727851 -1.872284 -2.062271
      ESP Fit Center  124 is at   3.756554  0.675718 -2.425333
      ESP Fit Center  125 is at   3.347851  0.574982 -2.425333
      ESP Fit Center  126 is at   2.975132  0.379364 -2.425333
      ESP Fit Center  127 is at   4.177489 -2.790992 -2.425333
      ESP Fit Center  128 is at   4.586192 -2.690256 -2.425333
      ESP Fit Center  129 is at   4.958912 -2.494638 -2.425333
      ESP Fit Center  130 is at   5.273986 -2.215507 -2.425333
      ESP Fit Center  131 is at   5.513104 -1.869084 -2.425333
      ESP Fit Center  132 is at   3.755695  0.412173 -2.743560
      ESP Fit Center  133 is at   3.350162  0.293097 -2.743560
      ESP Fit Center  134 is at   4.583882 -2.408372 -2.743560
      ESP Fit Center  135 is at   4.939440 -2.179868 -2.743560
      ESP Fit Center  136 is at   5.216219 -1.860448 -2.743560
      ESP Fit Center  137 is at   3.647740  0.064522 -3.004722
      ESP Fit Center  138 is at   4.487064 -2.102022 -3.004722
      ESP Fit Center  139 is at   4.829222 -1.843636 -3.004722
      ESP Fit Center  140 is at   5.054935 -1.479097 -3.004722
      ESP Fit Center  141 is at   3.967022 -0.254002 -3.198782
      ESP Fit Center  142 is at   4.662990 -1.459455 -3.198782
      ESP Fit Center  143 is at   4.397216 -1.945034  0.885338
      ESP Fit Center  144 is at   4.832032 -1.945034  0.828094
      ESP Fit Center  145 is at   4.614624 -1.568472  0.828094
      ESP Fit Center  146 is at   3.962400 -1.945034  0.828094
      ESP Fit Center  147 is at   4.179808 -2.321595  0.828094
      ESP Fit Center  148 is at   4.614624 -2.321595  0.828094
      ESP Fit Center  149 is at   5.237216 -1.945034  0.660261
      ESP Fit Center  150 is at   5.124677 -1.525034  0.660261
      ESP Fit Center  151 is at   3.669755 -2.365034  0.660261
      ESP Fit Center  152 is at   3.977216 -2.672495  0.660261
      ESP Fit Center  153 is at   4.397216 -2.785034  0.660261
      ESP Fit Center  154 is at   4.817216 -2.672495  0.660261
      ESP Fit Center  155 is at   5.124677 -2.365034  0.660261
      ESP Fit Center  156 is at   5.585155 -1.945034  0.393278
      ESP Fit Center  157 is at   5.504936 -1.515901  0.393278
      ESP Fit Center  158 is at   5.275114 -1.144724  0.393278
      ESP Fit Center  159 is at   3.681323 -2.893030  0.393278
      ESP Fit Center  160 is at   4.072121 -3.087624  0.393278
      ESP Fit Center  161 is at   4.506825 -3.127906  0.393278
      ESP Fit Center  162 is at   4.926726 -3.008433  0.393278
      ESP Fit Center  163 is at   5.275114 -2.745343  0.393278
      ESP Fit Center  164 is at   5.504936 -2.374167  0.393278
      ESP Fit Center  165 is at   5.852139 -1.945034  0.045338
      ESP Fit Center  166 is at   5.787500 -1.516188  0.045338
      ESP Fit Center  167 is at   3.669755 -3.205034  0.045338
      ESP Fit Center  168 is at   4.073465 -3.363478  0.045338
      ESP Fit Center  169 is at   4.505942 -3.395888  0.045338
      ESP Fit Center  170 is at   4.928759 -3.299383  0.045338
      ESP Fit Center  171 is at   5.304345 -3.082538  0.045338
      ESP Fit Center  172 is at   5.599329 -2.764621  0.045338
      ESP Fit Center  173 is at   5.787500 -2.373880  0.045338
      ESP Fit Center  174 is at   6.019971 -1.945034 -0.359846
      ESP Fit Center  175 is at   5.964677 -1.525034 -0.359846
      ESP Fit Center  176 is at   3.249755 -3.092495 -0.359846
      ESP Fit Center  177 is at   3.585838 -3.350381 -0.359846
      ESP Fit Center  178 is at   3.977216 -3.512495 -0.359846
      ESP Fit Center  179 is at   4.397216 -3.567789 -0.359846
      ESP Fit Center  180 is at   4.817216 -3.512495 -0.359846
      ESP Fit Center  181 is at   5.208594 -3.350381 -0.359846
      ESP Fit Center  182 is at   5.544677 -3.092495 -0.359846
      ESP Fit Center  183 is at   5.802563 -2.756411 -0.359846
      ESP Fit Center  184 is at   5.964677 -2.365034 -0.359846
      ESP Fit Center  185 is at   6.077216 -1.945034 -0.794662
      ESP Fit Center  186 is at   6.024436 -1.527235 -0.794662
      ESP Fit Center  187 is at   3.038067 -2.932513 -0.794662
      ESP Fit Center  188 is at   3.326344 -3.239496 -0.794662
      ESP Fit Center  189 is at   3.681907 -3.465143 -0.794662
      ESP Fit Center  190 is at   4.082415 -3.595276 -0.794662
      ESP Fit Center  191 is at   4.502704 -3.621719 -0.794662
      ESP Fit Center  192 is at   4.916364 -3.542809 -0.794662
      ESP Fit Center  193 is at   5.297405 -3.363505 -0.794662
      ESP Fit Center  194 is at   5.621883 -3.095073 -0.794662
      ESP Fit Center  195 is at   5.869411 -2.754380 -0.794662
      ESP Fit Center  196 is at   6.024436 -2.362833 -0.794662
      ESP Fit Center  197 is at   6.019971 -1.945034 -1.229478
      ESP Fit Center  198 is at   3.249755 -3.092495 -1.229478
      ESP Fit Center  199 is at   3.585838 -3.350381 -1.229478
      ESP Fit Center  200 is at   3.977216 -3.512495 -1.229478
      ESP Fit Center  201 is at   4.397216 -3.567789 -1.229478
      ESP Fit Center  202 is at   4.817216 -3.512495 -1.229478
      ESP Fit Center  203 is at   5.208594 -3.350381 -1.229478
      ESP Fit Center  204 is at   5.544677 -3.092495 -1.229478
      ESP Fit Center  205 is at   5.802563 -2.756411 -1.229478
      ESP Fit Center  206 is at   5.964677 -2.365034 -1.229478
      ESP Fit Center  207 is at   5.852139 -1.945034 -1.634662
      ESP Fit Center  208 is at   3.669755 -3.205034 -1.634662
      ESP Fit Center  209 is at   4.073465 -3.363478 -1.634662
      ESP Fit Center  210 is at   4.505942 -3.395888 -1.634662
      ESP Fit Center  211 is at   4.928759 -3.299383 -1.634662
      ESP Fit Center  212 is at   5.304345 -3.082538 -1.634662
      ESP Fit Center  213 is at   5.599329 -2.764621 -1.634662
      ESP Fit Center  214 is at   5.787500 -2.373880 -1.634662
      ESP Fit Center  215 is at   4.072121 -3.087624 -1.982601
      ESP Fit Center  216 is at   4.506825 -3.127906 -1.982601
      ESP Fit Center  217 is at   4.926726 -3.008433 -1.982601
      ESP Fit Center  218 is at   5.275114 -2.745343 -1.982601
      ESP Fit Center  219 is at   5.504936 -2.374167 -1.982601
      ESP Fit Center  220 is at   1.735400 -1.778130 -1.634828
      ESP Fit Center  221 is at   1.897513 -2.169507 -1.634828
      ESP Fit Center  222 is at   2.155400 -2.505591 -1.634828
      ESP Fit Center  223 is at   2.491483 -2.763477 -1.634828
      ESP Fit Center  224 is at   2.882861 -2.925591 -1.634828
      ESP Fit Center  225 is at   1.943712 -0.370650 -2.069644
      ESP Fit Center  226 is at   1.740836 -0.739680 -2.069644
      ESP Fit Center  227 is at   1.636108 -1.147570 -2.069644
      ESP Fit Center  228 is at   1.636108 -1.568689 -2.069644
      ESP Fit Center  229 is at   1.740836 -1.976579 -2.069644
      ESP Fit Center  230 is at   1.943712 -2.345609 -2.069644
      ESP Fit Center  231 is at   2.231989 -2.652592 -2.069644
      ESP Fit Center  232 is at   2.587552 -2.878239 -2.069644
      ESP Fit Center  233 is at   2.988060 -3.008372 -2.069644
      ESP Fit Center  234 is at   3.408349 -3.034815 -2.069644
      ESP Fit Center  235 is at   2.491483  0.047218 -2.504460
      ESP Fit Center  236 is at   2.155400 -0.210668 -2.504460
      ESP Fit Center  237 is at   1.897513 -0.546752 -2.504460
      ESP Fit Center  238 is at   1.735400 -0.938130 -2.504460
      ESP Fit Center  239 is at   1.680105 -1.358130 -2.504460
      ESP Fit Center  240 is at   1.735400 -1.778130 -2.504460
      ESP Fit Center  241 is at   1.897513 -2.169507 -2.504460
      ESP Fit Center  242 is at   2.155400 -2.505591 -2.504460
      ESP Fit Center  243 is at   2.491483 -2.763477 -2.504460
      ESP Fit Center  244 is at   2.882861 -2.925591 -2.504460
      ESP Fit Center  245 is at   3.302861 -2.980885 -2.504460
      ESP Fit Center  246 is at   3.722861 -2.925591 -2.504460
      ESP Fit Center  247 is at   4.114239 -2.763477 -2.504460
      ESP Fit Center  248 is at   2.979110  0.060315 -2.909644
      ESP Fit Center  249 is at   2.575400 -0.098130 -2.909644
      ESP Fit Center  250 is at   2.236327 -0.368531 -2.909644
      ESP Fit Center  251 is at   1.992021 -0.726862 -2.909644
      ESP Fit Center  252 is at   1.864188 -1.141285 -2.909644
      ESP Fit Center  253 is at   1.864188 -1.574975 -2.909644
      ESP Fit Center  254 is at   1.992021 -1.989397 -2.909644
      ESP Fit Center  255 is at   2.236327 -2.347728 -2.909644
      ESP Fit Center  256 is at   2.575400 -2.618130 -2.909644
      ESP Fit Center  257 is at   2.979110 -2.776574 -2.909644
      ESP Fit Center  258 is at   3.411587 -2.808984 -2.909644
      ESP Fit Center  259 is at   3.834404 -2.712479 -2.909644
      ESP Fit Center  260 is at   4.209990 -2.495634 -2.909644
      ESP Fit Center  261 is at   3.832371 -0.294730 -3.257584
      ESP Fit Center  262 is at   3.412470 -0.175258 -3.257584
      ESP Fit Center  263 is at   2.977766 -0.215539 -3.257584
      ESP Fit Center  264 is at   2.586967 -0.410134 -3.257584
      ESP Fit Center  265 is at   2.292854 -0.732760 -3.257584
      ESP Fit Center  266 is at   2.135148 -1.139846 -3.257584
      ESP Fit Center  267 is at   2.135148 -1.576413 -3.257584
      ESP Fit Center  268 is at   2.292854 -1.983499 -3.257584
      ESP Fit Center  269 is at   2.586967 -2.306126 -3.257584
      ESP Fit Center  270 is at   2.977766 -2.500720 -3.257584
      ESP Fit Center  271 is at   3.412470 -2.541001 -3.257584
      ESP Fit Center  272 is at   3.832371 -2.421529 -3.257584
      ESP Fit Center  273 is at   4.180759 -2.158439 -3.257584
      ESP Fit Center  274 is at   4.410581 -1.787263 -3.257584
      ESP Fit Center  275 is at   4.142861 -1.358130 -3.524567
      ESP Fit Center  276 is at   4.030322 -0.938130 -3.524567
      ESP Fit Center  277 is at   3.722861 -0.630668 -3.524567
      ESP Fit Center  278 is at   3.302861 -0.518130 -3.524567
      ESP Fit Center  279 is at   2.882861 -0.630668 -3.524567
      ESP Fit Center  280 is at   2.575400 -0.938130 -3.524567
      ESP Fit Center  281 is at   2.462861 -1.358130 -3.524567
      ESP Fit Center  282 is at   2.575400 -1.778130 -3.524567
      ESP Fit Center  283 is at   2.882861 -2.085591 -3.524567
      ESP Fit Center  284 is at   3.302861 -2.198130 -3.524567
      ESP Fit Center  285 is at   3.722861 -2.085591 -3.524567
      ESP Fit Center  286 is at   4.030322 -1.778130 -3.524567
      ESP Fit Center  287 is at   3.737677 -1.358130 -3.692400
      ESP Fit Center  288 is at   3.520269 -0.981568 -3.692400
      ESP Fit Center  289 is at   3.085453 -0.981568 -3.692400
      ESP Fit Center  290 is at   2.868045 -1.358130 -3.692400
      ESP Fit Center  291 is at   3.085453 -1.734691 -3.692400
      ESP Fit Center  292 is at   3.520269 -1.734691 -3.692400
      ESP Fit Center  293 is at   3.302861 -1.358130 -3.749644
      ESP Fit Center  294 is at   3.547685 -0.296534  1.863301
      ESP Fit Center  295 is at   3.941631 -0.296534  1.743799
      ESP Fit Center  296 is at   3.833964 -0.698352  1.743799
      ESP Fit Center  297 is at   4.304693 -0.296534  1.549738
      ESP Fit Center  298 is at   4.000195 -1.082533  1.549738
      ESP Fit Center  299 is at   4.225909 -0.717994  1.549738
      ESP Fit Center  300 is at   4.622920 -0.296534  1.288577
      ESP Fit Center  301 is at   4.110414 -1.418765  1.288577
      ESP Fit Center  302 is at   4.387193 -1.099345  1.288577
      ESP Fit Center  303 is at   4.562770 -0.714886  1.288577
      ESP Fit Center  304 is at   4.884082 -0.296534  0.970350
      ESP Fit Center  305 is at   4.129886 -1.733535  0.970350
      ESP Fit Center  306 is at   4.444960 -1.454404  0.970350
      ESP Fit Center  307 is at   4.684078 -1.107981  0.970350
      ESP Fit Center  308 is at   4.833344 -0.714400  0.970350
      ESP Fit Center  309 is at   5.078143 -0.296534  0.607288
      ESP Fit Center  310 is at   5.032783 -0.713609  0.607288
      ESP Fit Center  311 is at   1.729458  1.037704 -0.999983
      ESP Fit Center  312 is at   1.475567  0.703716 -0.999983
      ESP Fit Center  313 is at   1.831031  0.861335 -1.363045
      ESP Fit Center  314 is at   1.591913  0.514912 -1.363045
      ESP Fit Center  315 is at   1.442648  0.121331 -1.363045
      ESP Fit Center  316 is at   2.521136  1.054200 -1.681272
      ESP Fit Center  317 is at   2.165577  0.825697 -1.681272
      ESP Fit Center  318 is at   1.888798  0.506276 -1.681272
      ESP Fit Center  319 is at   1.713221  0.121817 -1.681272
      ESP Fit Center  320 is at   1.653071 -0.296534 -1.681272
      ESP Fit Center  321 is at   1.713221 -0.714886 -1.681272
      ESP Fit Center  322 is at   3.245645  0.865186 -1.942434
      ESP Fit Center  323 is at   2.818714  0.825625 -1.942434
      ESP Fit Center  324 is at   2.434903  0.634510 -1.942434
      ESP Fit Center  325 is at   2.146049  0.317653 -1.942434
      ESP Fit Center  326 is at   1.991163 -0.082154 -1.942434
      ESP Fit Center  327 is at   2.442027  0.105283 -2.136495
      ESP Fit Center  328 is at   3.426534  0.866329  2.052159
      ESP Fit Center  329 is at   3.834041  0.866329  2.009328
      ESP Fit Center  330 is at   3.630287  1.219241  2.009328
      ESP Fit Center  331 is at   3.222781  1.219241  2.009328
      ESP Fit Center  332 is at   3.630287  0.513418  2.009328
[...]
 6902 Fit       0.005883
 6903 Fit       0.005983
 6904 Fit       0.006079
 6905 Fit       0.005566
 6906 Fit       0.005702
 6907 Fit       0.005788
 6908 Fit       0.005812
 6909 Fit       0.005791
 6910 Fit       0.005773
 6911 Fit       0.005843
 6912 Fit       0.005472
 6913 Fit       0.005568
 6914 Fit       0.005677
 6915 Fit       0.005749
 6916 Fit       0.005758
 6917 Fit       0.005698
 6918 Fit       0.005588
 6919 Fit       0.005472
 6920 Fit       0.005418
 6921 Fit       0.005524
 6922 Fit       0.005486
 6923 Fit       0.005560
 6924 Fit       0.005658
 6925 Fit       0.005727
 6926 Fit       0.005738
 6927 Fit       0.005678
 6928 Fit       0.005551
 6929 Fit       0.005377
 6930 Fit       0.005192
 6931 Fit       0.005054
 6932 Fit       0.005453
 6933 Fit       0.005418
 6934 Fit       0.005496
 6935 Fit       0.005599
 6936 Fit       0.005673
 6937 Fit       0.005688
 6938 Fit       0.005626
 6939 Fit       0.005489
 6940 Fit       0.005288
 6941 Fit       0.005051
 6942 Fit       0.004822
 6943 Fit       0.004666
 6944 Fit       0.005464
 6945 Fit       0.005260
 6946 Fit       0.005263
 6947 Fit       0.005358
 6948 Fit       0.005471
 6949 Fit       0.005553
 6950 Fit       0.005574
 6951 Fit       0.005521
 6952 Fit       0.005389
 6953 Fit       0.005187
 6954 Fit       0.004934
 6955 Fit       0.004661
 6956 Fit       0.004420
 6957 Fit       0.005001
 6958 Fit       0.004982
 6959 Fit       0.005073
 6960 Fit       0.005200
 6961 Fit       0.005311
 6962 Fit       0.005372
 6963 Fit       0.005363
 6964 Fit       0.005275
 6965 Fit       0.005109
 6966 Fit       0.004876
 6967 Fit       0.004596
 6968 Fit       0.004305
 6969 Fit       0.004054
 6970 Fit       0.004650
 6971 Fit       0.004598
 6972 Fit       0.004682
 6973 Fit       0.004824
 6974 Fit       0.004964
 6975 Fit       0.005060
 6976 Fit       0.005088
 6977 Fit       0.005032
 6978 Fit       0.004891
 6979 Fit       0.004671
 6980 Fit       0.004390
 6981 Fit       0.004079
 6982 Fit       0.003785
 6983 Fit       0.004148
 6984 Fit       0.004266
 6985 Fit       0.004431
 6986 Fit       0.004584
 6987 Fit       0.004684
 6988 Fit       0.004706
 6989 Fit       0.004634
 6990 Fit       0.004470
 6991 Fit       0.004224
 6992 Fit       0.003918
 6993 Fit       0.003592
 6994 Fit       0.003654
 6995 Fit       0.003794
 6996 Fit       0.003972
 6997 Fit       0.004130
 6998 Fit       0.004227
 6999 Fit       0.004239
 7000 Fit       0.004153
 7001 Fit       0.003971
 7002 Fit       0.003708
 7003 Fit       0.003392
 7004 Fit       0.003281
 7005 Fit       0.003465
 7006 Fit       0.003625
 7007 Fit       0.003711
 7008 Fit       0.003694
 7009 Fit       0.003565
 7010 Fit       0.003332
 7011 Fit       0.003022
 7012 Fit       0.002951
 7013 Fit       0.003093
 7014 Fit       0.003152
 7015 Fit       0.003095
 7016 Fit       0.002915
 7017 Fit       0.002592
 7018 Fit       0.002532
 7019 Fit      -0.008885
 7020 Fit      -0.006113
 7021 Fit      -0.011977
 7022 Fit      -0.009493
 7023 Fit      -0.006928
 7024 Fit      -0.016199
 7025 Fit      -0.014075
 7026 Fit      -0.011606
 7027 Fit      -0.009004
 7028 Fit      -0.018652
 7029 Fit      -0.016640
 7030 Fit      -0.014311
 7031 Fit      -0.011769
 7032 Fit      -0.009185
 7033 Fit      -0.006749
 7034 Fit      -0.009978
 7035 Fit      -0.007302
 7036 Fit      -0.006302
 7037 Fit      -0.007958
 7038 Fit      -0.010456
 7039 Fit       0.006802
 7040 Fit       0.006020
 7041 Fit       0.006122
 7042 Fit       0.006509
 7043 Fit       0.007240
 7044 Fit       0.008338
 7045 Fit       0.005579
 7046 Fit       0.005901
 7047 Fit       0.006580
 7048 Fit       0.005112
 7049 Fit       0.005295
 7050 Fit       0.005855
 7051 Fit       0.004813
 7052 Fit       0.005258
 7053 Fit       0.004391
 7054 Fit       0.004629
 7055 Fit       0.004066
 7056 Fit       0.004291
 7057 Fit       0.005224
 7058 Fit       0.004851
 7059 Fit       0.003748
 7060 Fit       0.003965
 7061 Fit       0.005271
 7062 Fit       0.004662
 7063 Fit       0.004333
 7064 Fit       0.003425
 7065 Fit       0.003634
 7066 Fit       0.006673
 7067 Fit       0.005664
 7068 Fit       0.004848
 7069 Fit       0.004240
 7070 Fit       0.003869
 7071 Fit       0.003106
 7072 Fit       0.003154
 7073 Fit       0.003485
 7074 Fit      -0.003465
 7075 Fit       0.004293
 7076 Fit       0.003731
 7077 Fit       0.003390
 7078 Fit       0.003280
 7079 Fit       0.002871
 7080 Fit       0.002762
 7081 Fit       0.002865
 7082 Fit       0.003203
 7083 Fit      -0.002539
 7084 Fit      -0.005427
 7085 Fit      -0.008267
 7086 Fit       0.003367
 7087 Fit       0.003022
 7088 Fit       0.002879
 7089 Fit       0.002631
 7090 Fit       0.002484
 7091 Fit       0.002454
 7092 Fit       0.002586
 7093 Fit       0.002891
 7094 Fit       0.000037
 7095 Fit      -0.001683
 7096 Fit       0.002658
 7097 Fit       0.002525
 7098 Fit       0.002483
 7099 Fit       0.002450
 7100 Fit       0.002380
 7101 Fit       0.002278
 7102 Fit       0.002192
 7103 Fit       0.002178
 7104 Fit       0.002276
 7105 Fit       0.002494
 7106 Fit       0.002797
 7107 Fit       0.001631
 7108 Fit       0.000156
 7109 Fit       0.002379
 7110 Fit       0.002226
 7111 Fit       0.002127
 7112 Fit       0.002045
 7113 Fit       0.001984
 7114 Fit       0.001972
 7115 Fit       0.002032
 7116 Fit       0.002165
 7117 Fit       0.002332
 7118 Fit       0.002448
 7119 Fit       0.002399
 7120 Fit       0.002071
 7121 Fit       0.001401
 7122 Fit       0.000404
 7123 Fit       0.002148
 7124 Fit       0.001992
 7125 Fit       0.001903
 7126 Fit       0.001878
 7127 Fit       0.001914
 7128 Fit       0.001979
 7129 Fit       0.001996
 7130 Fit       0.001857
 7131 Fit       0.001475
 7132 Fit       0.001954
 7133 Fit       0.001896
 7134 Fit       0.001877
 7135 Fit       0.001821
 7136 Fit      -0.018827
 7137 Fit      -0.019627
 7138 Fit      -0.017218
 7139 Fit      -0.017345
 7140 Fit      -0.018001
 7141 Fit      -0.016081
 7142 Fit      -0.015623
 7143 Fit      -0.015538
 7144 Fit      -0.015855
 7145 Fit      -0.014525
 7146 Fit      -0.013987
 7147 Fit      -0.013713
 7148 Fit      -0.013715
 7149 Fit      -0.014007
 7150 Fit      -0.012510
 7151 Fit      -0.012017
 7152 Fit      -0.011745
 7153 Fit      -0.011695
 7154 Fit      -0.011868
 7155 Fit      -0.012269
 7156 Fit      -0.010974
 7157 Fit      -0.010352
 7158 Fit      -0.009911
 7159 Fit      -0.009652
 7160 Fit      -0.009564
 7161 Fit      -0.009637
 7162 Fit      -0.009862
 7163 Fit      -0.009186
 7164 Fit      -0.008506
 7165 Fit      -0.007974
 7166 Fit      -0.007607
 7167 Fit      -0.007398
 7168 Fit      -0.007324
 7169 Fit      -0.007357
 7170 Fit      -0.007472
 7171 Fit      -0.007306
 7172 Fit      -0.006587
 7173 Fit      -0.005972
 7174 Fit      -0.005506
 7175 Fit      -0.005202
 7176 Fit      -0.005042
 7177 Fit      -0.004985
 7178 Fit      -0.004981
 7179 Fit      -0.004984
 7180 Fit      -0.005310
 7181 Fit      -0.002576
 7182 Fit      -0.002541
 7183 Fit      -0.002412
 7184 Fit       0.000087
 7185 Fit       0.002374
 7186 Fit      -0.002381
 7187 Fit      -0.011363
 7188 Fit      -0.003253
 7189 Fit      -0.010541
 7190 Fit      -0.005252
 7191 Fit      -0.004121
 7192 Fit      -0.002681
 7193 Fit      -0.010413
 7194 Fit      -0.009745
 7195 Fit      -0.008966
 7196 Fit      -0.008177
 7197 Fit      -0.004942
 7198 Fit      -0.003624
 7199 Fit      -0.002026
 7200 Fit       0.002706
 7201 Fit      -0.009409
 7202 Fit      -0.009080
 7203 Fit      -0.008441
 7204 Fit      -0.007673
 7205 Fit      -0.006856
 7206 Fit      -0.005982
 7207 Fit      -0.004683
 7208 Fit      -0.003267
 7209 Fit       0.000995
 7210 Fit      -0.000060
 7211 Fit      -0.008037
 7212 Fit      -0.008038
 7213 Fit      -0.007552
 7214 Fit      -0.006789
 7215 Fit      -0.005841
 7216 Fit      -0.004426
 7217 Fit      -0.002878
 7218 Fit      -0.001356
 7219 Fit      -0.000288
 7220 Fit      -0.001076
 7221 Fit      -0.002618
 7222 Fit      -0.004540
 7223 Fit      -0.006106
 7224 Fit      -0.006763
 7225 Fit      -0.006526
 7226 Fit      -0.005684
 7227 Fit      -0.004135
 7228 Fit      -0.002583
 7229 Fit      -0.002096
 7230 Fit      -0.003285
 7231 Fit      -0.004936
 7232 Fit      -0.005258
 7233 Fit      -0.003770
 7234 Fit      -0.000982
 7235 Fit      -0.000024
 7236 Fit      -0.002994
 7237 Fit      -0.003660
 7238 Fit      -0.001500
 7239 Fit       0.001121
 7240 Fit       0.001911
 7241 Fit      -0.004943
 7242 Fit      -0.006474
 7243 Fit      -0.006144
 7244 Fit      -0.004298
 7245 Fit      -0.001626
 7246 Fit       0.001103
 7247 Fit       0.005037
 7248 Fit      -0.008768
 7249 Fit      -0.009240
 7250 Fit      -0.008450
 7251 Fit      -0.006658
 7252 Fit      -0.004175
 7253 Fit      -0.001378
 7254 Fit       0.001336
 7255 Fit      -0.011916
 7256 Fit      -0.011437
 7257 Fit      -0.010052
 7258 Fit      -0.007923
 7259 Fit      -0.005247
 7260 Fit      -0.002266
 7261 Fit      -0.014430
 7262 Fit      -0.013581
 7263 Fit      -0.012073
 7264 Fit      -0.017056
 7265 Fit      -0.016139
 7266 Fit      -0.019815
 7267 Fit       0.013431
 7268 Fit       0.015997
 7269 Fit       0.012429
 7270 Fit       0.015608
 7271 Fit       0.010926
 7272 Fit       0.014410
 7273 Fit       0.008171
 7274 Fit       0.011165
 7275 Fit       0.004789
 7276 Fit       0.006909
 7277 Fit       0.000446
 7278 Fit       0.001753
 7279 Fit       0.002293
 7280 Fit      -0.003443
 7281 Fit      -0.002824
 7282 Fit      -0.003589
 7283 Fit      -0.007036
 7284 Fit      -0.008746
 7285 Fit      -0.012630
 7286 Fit      -0.013842
 7287 Fit      -0.014956
 7288 Fit      -0.016086
 7289 Fit      -0.013113
 7290 Fit      -0.013731
 7291 Fit      -0.014305
 7292 Fit      -0.015082
 7293 Fit      -0.016080
 7294 Fit      -0.017220
 7295 Fit      -0.018392
 7296 Fit      -0.014734
 7297 Fit      -0.014382
 7298 Fit      -0.014367
 7299 Fit      -0.014731
 7300 Fit      -0.015442
 7301 Fit      -0.016432
 7302 Fit      -0.017614
 7303 Fit      -0.016989
 7304 Fit      -0.015352
 7305 Fit      -0.014427
 7306 Fit      -0.014120
 7307 Fit      -0.014324
 7308 Fit      -0.014957
 7309 Fit      -0.015949
 7310 Fit      -0.014941
 7311 Fit      -0.013798
 7312 Fit      -0.013359
 7313 Fit      -0.013464
 7314 Fit      -0.014027
 7315 Fit      -0.012474
 7316 Fit      -0.012095
 7317 Fit      -0.012234
 7318 Fit      -0.010726
 7319 Fit      -0.010395
 7320 Fit      -0.008508
 7321 Fit      -0.003950
 7322 Fit      -0.005859
 7323 Fit      -0.005371
 7324 Fit      -0.003942
 7325 Fit      -0.008864
 7326 Fit      -0.005480
 7327 Fit      -0.002360
 7328 Fit      -0.003944
 7329 Fit      -0.005109
 7330 Fit      -0.005137
 7331 Fit      -0.004269
 7332 Fit      -0.008364
 7333 Fit      -0.005397
 7334 Fit      -0.002896
 7335 Fit      -0.001227
 7336 Fit      -0.000899
 7337 Fit      -0.002111
 7338 Fit      -0.004669
 7339 Fit      -0.005182
 7340 Fit      -0.007242
 7341 Fit      -0.005091
 7342 Fit      -0.003894
 7343 Fit      -0.003914
 7344 Fit      -0.005763
 7345 Fit      -0.006948
 7346 Fit      -0.005857
 7347 Fit       0.006873
 7348 Fit       0.005914
 7349 Fit       0.005045
 7350 Fit       0.006601
 7351 Fit       0.006136
 7352 Fit       0.005493
 7353 Fit       0.004808
 7354 Fit       0.004140
 7355 Fit       0.003531
 7356 Fit      -0.003411
 7357 Fit      -0.005161
 7358 Fit      -0.006476
 7359 Fit       0.004500
 7360 Fit       0.005280
 7361 Fit       0.005362
 7362 Fit       0.005073
 7363 Fit       0.004611
 7364 Fit       0.004083
 7365 Fit       0.003556
 7366 Fit       0.003077
 7367 Fit      -0.001597
 7368 Fit      -0.002652
 7369 Fit      -0.003208
 7370 Fit      -0.002880
 7371 Fit      -0.001560
 7372 Fit       0.000402
 7373 Fit       0.002361
 7374 Fit       0.003781
 7375 Fit       0.004502
 7376 Fit       0.004663
 7377 Fit       0.004475
 7378 Fit       0.004103
 7379 Fit       0.003655
 7380 Fit       0.003204
 7381 Fit       0.002798
 7382 Fit       0.002457
 7383 Fit       0.000530
 7384 Fit      -0.000445
 7385 Fit      -0.000167
 7386 Fit      -0.000712
 7387 Fit      -0.000777
 7388 Fit      -0.000159
 7389 Fit       0.001029
 7390 Fit       0.002378
 7391 Fit       0.003452
 7392 Fit       0.004044
 7393 Fit       0.004193
 7394 Fit       0.004037
 7395 Fit       0.003714
 7396 Fit       0.003326
 7397 Fit       0.002944
 7398 Fit       0.002608
 7399 Fit       0.002335
 7400 Fit       0.002131
 7401 Fit       0.001785
 7402 Fit       0.001570
 7403 Fit       0.001156
 7404 Fit       0.000540
 7405 Fit       0.000951
 7406 Fit       0.000755
 7407 Fit       0.001021
 7408 Fit       0.001770
 7409 Fit       0.002709
 7410 Fit       0.003452
 7411 Fit       0.003803
 7412 Fit       0.003796
 7413 Fit       0.003560
 7414 Fit       0.003225
 7415 Fit       0.002886
 7416 Fit       0.002598
 7417 Fit       0.002381
 7418 Fit       0.002233
 7419 Fit       0.002121
 7420 Fit       0.001980
 7421 Fit       0.001733
 7422 Fit       0.001357
 7423 Fit       0.001805
 7424 Fit       0.001874
 7425 Fit       0.002388
 7426 Fit       0.003066
 7427 Fit       0.003475
 7428 Fit       0.003483
 7429 Fit       0.003234
 7430 Fit       0.002916
 7431 Fit       0.002644
 7432 Fit       0.002443
 7433 Fit       0.002257
 7434 Fit       0.002020
 7435 Fit       0.002433
 7436 Fit       0.002735
 7437 Fit       0.003168
 7438 Fit       0.003123
 7439 Fit       0.002820
 7440 Fit       0.002558
 7441 Fit       0.002864
 7442 Fit       0.005171
 7443 Fit       0.006242
 7444 Fit       0.004655
 7445 Fit       0.006794
 7446 Fit       0.007555
 7447 Fit       0.004619
 7448 Fit       0.006760
 7449 Fit       0.008226
 7450 Fit       0.009192
 7451 Fit       0.009729
 7452 Fit       0.005090
 7453 Fit       0.007098
 7454 Fit       0.008462
 7455 Fit       0.009462
 7456 Fit       0.010279
 7457 Fit       0.011001
 7458 Fit       0.011682
 7459 Fit       0.009558
 7460 Fit       0.010265
 7461 Fit       0.010938
 7462 Fit       0.011618
 7463 Fit       0.012347
 7464 Fit       0.013211
 7465 Fit       0.010844
 7466 Fit       0.011292
 7467 Fit       0.011849
 7468 Fit       0.012493
 7469 Fit       0.013245
 7470 Fit       0.014184
 7471 Fit       0.011635
 7472 Fit       0.011986
 7473 Fit       0.012500
 7474 Fit       0.013134
 7475 Fit       0.013900
 7476 Fit       0.014856
 7477 Fit       0.012144
 7478 Fit       0.012597
 7479 Fit       0.013203
 7480 Fit       0.013955
 7481 Fit       0.014890
 7482 Fit       0.016083
 7483 Fit       0.012079
 7484 Fit       0.012499
 7485 Fit       0.013078
 7486 Fit       0.013805
 7487 Fit       0.014718
 7488 Fit       0.015882
 7489 Fit       0.017382
 7490 Fit       0.012073
 7491 Fit       0.012620
 7492 Fit       0.013280
 7493 Fit       0.014110
 7494 Fit       0.015194
 7495 Fit       0.016634
 7496 Fit       0.018544
 7497 Fit       0.012980
 7498 Fit       0.013792
 7499 Fit       0.014930
 7500 Fit       0.016556
 7501 Fit       0.018871
 7502 Fit       0.014060
 7503 Fit       0.015610
 7504 Fit       0.018042
 7505 Fit       0.021792
 7506 Fit       0.014155
 7507 Fit       0.016280
 7508 Fit      -0.020922
 7509 Fit      -0.017169
 7510 Fit      -0.025839
 7511 Fit      -0.019860
 7512 Fit      -0.016090
 7513 Fit      -0.014021
 7514 Fit      -0.023293
 7515 Fit      -0.017927
 7516 Fit      -0.014501
 7517 Fit      -0.012517
 7518 Fit      -0.024981
 7519 Fit      -0.018618
 7520 Fit      -0.014426
 7521 Fit      -0.011743
 7522 Fit      -0.010200
 7523 Fit      -0.025958
 7524 Fit      -0.019056
 7525 Fit      -0.014374
 7526 Fit      -0.011183
 7527 Fit      -0.009046
 7528 Fit      -0.024972
 7529 Fit      -0.018241
 7530 Fit      -0.013543
 7531 Fit      -0.010196
 7532 Fit      -0.007762
 7533 Fit      -0.005944
 7534 Fit      -0.021403
 7535 Fit      -0.015533
 7536 Fit      -0.011296
 7537 Fit      -0.008135
 7538 Fit      -0.005642
 7539 Fit      -0.003468
 7540 Fit      -0.016945
 7541 Fit      -0.012172
 7542 Fit      -0.008539
 7543 Fit      -0.005616
 7544 Fit      -0.002992
 7545 Fit      -0.017587
 7546 Fit      -0.012919
 7547 Fit      -0.009167
 7548 Fit      -0.006072
 7549 Fit      -0.003296
 7550 Fit      -0.015746
 7551 Fit      -0.012060
 7552 Fit      -0.008673
 7553 Fit      -0.005685
 7554 Fit      -0.002894
 7555 Fit      -0.012265
 7556 Fit      -0.010520
 7557 Fit      -0.008056
 7558 Fit      -0.005506
 7559 Fit      -0.002991
 7560 Fit      -0.007767
 7561 Fit      -0.008187
 7562 Fit      -0.007003
 7563 Fit      -0.005123
 7564 Fit      -0.006018
 7565 Fit      -0.007113
 7566 Fit      -0.006830
 7567 Fit      -0.009003
 7568 Fit      -0.009985
 7569 Fit      -0.010084
 7570 Fit      -0.009065
 7571 Fit      -0.010921
 7572 Fit      -0.012183
 7573 Fit      -0.012857
 7574 Fit      -0.010604
 7575 Fit      -0.012417
 7576 Fit      -0.013825
 7577 Fit      -0.014820
 7578 Fit      -0.015414
 7579 Fit      -0.017723
 7580 Fit      -0.018085
 7581 Fit       0.000435
 7582 Fit      -0.004742
 7583 Fit      -0.000733
 -----------------------------------------------------------------
 Leave Link  602 at Wed Nov 29 20:25:27 2017, MaxMem=  2147483648 cpu:         1.3

 Test job not archived.
 1\1\GINC-LAC-137\FOpt\RHF\6-31G(d)\C11H15N1O1\SONGLIN3\29-Nov-2017\0\\
 #HF/6-31G* SCF=tight Test Pop=MK iop(6/33=2) iop(6/42=6) opt\\remark l
 ine goes here\\0,1\H,18.7344372738,-12.3475376083,20.0332982343\C,18.0
 916550105,-11.8001438498,20.7077783686\H,18.5344822432,-10.8369483817,
 20.9335069707\H,18.0080629823,-12.3648112442,21.6313770723\C,16.717802
 9053,-11.6793992918,20.0823379886\O,16.2934772445,-12.5106761934,19.32
 53706065\H,14.4690936393,-10.9312738829,19.1531859929\H,14.4994545018,
 -9.320201865,19.8275587957\C,14.6275465422,-10.3707334911,20.061564674
 1\N,16.0105279772,-10.5841135108,20.4498984692\H,16.3729772798,-10.016
 2589223,21.1816607496\H,11.0745040405,-8.2740725444,22.9849446022\H,11
 .0998035599,-11.8437084607,23.8361184965\C,11.2713004528,-9.1310898164
 ,23.6224289916\C,11.8079952357,-11.5405969537,23.0839615169\H,10.30320
 81686,-9.5155574248,23.9287620444\H,13.0080716817,-8.2490627119,24.587
 0404269\H,12.335655962,-13.5473515174,22.5742975408\H,11.4907636224,-7
 .9125048208,25.4065192738\C,12.0060569739,-10.1920501797,22.8298857063
 \C,12.0465419796,-8.6705767673,24.8627989228\C,12.5071644584,-12.50495
 39618,22.3712176995\C,12.9222284056,-9.8351908639,21.8426360242\C,13.4
 128239035,-12.1350233229,21.3958842707\H,12.2307992898,-9.5014254988,2
 5.5361986365\H,13.0774584214,-8.7902036514,21.6277900336\H,13.94818294
 63,-12.8821310662,20.8376996385\C,13.628923298,-10.7864021965,21.12427
 82525\\Version=ES64L-G09RevD.01\State=1-A\HF=-554.6262968\RMSD=8.378e-
 09\RMSF=1.535e-06\Dipole=0.1987095,1.062716,1.0793974\Quadrupole=5.393
 4126,0.267046,-5.6604586,3.1078142,1.3331715,-5.2229538\PG=C01 [X(C11H
 15N1O1)]\\@


          EVOLUTION
 IN THE BEGINNING GOD MADE MAN.
 HE WORKED THE DIRT WITH HIS HANDS.
 THEN GOD DECIDED TO GIVE MAN SCIENCE,
 MAN SHOULD BE USEFUL (LIKE AN APPLIANCE.)
 BUT SOON MAN'S KNOWLEDGE GREW TOO GREAT,
 TO THE HEADING SCIENCE HE COULDN'T RELATE
 SO GOD SAID "LETS HAVE DIFFERENT FIELDS,
 WE'LL DIVIDE THEM UP, SEE WHAT IT YIELDS."
 ENTER PHYSICS, CHEMISTRY, BIO
 THEY SPRANG UP AROUND THE NILE.
 BUT CHEMISTRY SURPASSED THE REST
 FAR AND AWAY IT WAS THE BEST.
 EXPERIMENT WAS GOD'S DECREE
 EXPERIMENT DID CHEMISTS WITH LOTS OF GLEE
 BUT SOON THEIR TESTS BEGAN TO BOG,
 THEY FOUND THEMSELVES DEEP IN A FOG.
 "GIVE US SOME HELP" THEY CRIED TO GOD.
 GOD LOOKED AROUND, THEN GAVE THE NOD.
 ENTER EINSTEIN, HEISENBERG, BOHR,
 REACTION PATHS WERE CLEAR ONCE MORE.
 WITH THEORISTS GOD SEND DIRECTION
 AND THEN HE STOPPED, HE'D MADE PERFECTION.
          -- THOMAS A. HOLME, 1981
 Job cpu time:       0 days  0 hours 23 minutes 41.1 seconds.
 File lengths (MBytes):  RWF=    134 Int=      0 D2E=      0 Chk=      6 Scr=      2
 Normal termination of Gaussian 09 at Wed Nov 29 20:25:28 2017.
