 Entering Gaussian System, Link 0=g09
 Initial command:
 /opt/software/Gaussian/g09/l1.exe "/mnt/ls15/scratch/users/songlin3/Gau-21691.inp" -scrdir="/mnt/ls15/scratch/users/songlin3/"
 Entering Link 1 = /opt/software/Gaussian/g09/l1.exe PID=     21692.
  
 Copyright (c) 1988,1990,1992,1993,1995,1998,2003,2009,2013,
            Gaussian, Inc.  All Rights Reserved.
  
 This is part of the Gaussian(R) 09 program.  It is based on
 the Gaussian(R) 03 system (copyright 2003, Gaussian, Inc.),
 the Gaussian(R) 98 system (copyright 1998, Gaussian, Inc.),
 the Gaussian(R) 94 system (copyright 1995, Gaussian, Inc.),
 the Gaussian 92(TM) system (copyright 1992, Gaussian, Inc.),
 the Gaussian 90(TM) system (copyright 1990, Gaussian, Inc.),
 the Gaussian 88(TM) system (copyright 1988, Gaussian, Inc.),
 the Gaussian 86(TM) system (copyright 1986, Carnegie Mellon
 University), and the Gaussian 82(TM) system (copyright 1983,
 Carnegie Mellon University). Gaussian is a federally registered
 trademark of Gaussian, Inc.
  
 This software contains proprietary and confidential information,
 including trade secrets, belonging to Gaussian, Inc.
  
 This software is provided under written license and may be
 used, copied, transmitted, or stored only in accord with that
 written license.
  
 The following legend is applicable only to US Government
 contracts under FAR:
  
                    RESTRICTED RIGHTS LEGEND
  
 Use, reproduction and disclosure by the US Government is
 subject to restrictions as set forth in subparagraphs (a)
 and (c) of the Commercial Computer Software - Restricted
 Rights clause in FAR 52.227-19.
  
 Gaussian, Inc.
 340 Quinnipiac St., Bldg. 40, Wallingford CT 06492
  
  
 ---------------------------------------------------------------
 Warning -- This program may not be used in any manner that
 competes with the business of Gaussian, Inc. or will provide
 assistance to any competitor of Gaussian, Inc.  The licensee
 of this program is prohibited from giving any competitor of
 Gaussian, Inc. access to this program.  By using this program,
 the user acknowledges that Gaussian, Inc. is engaged in the
 business of creating and licensing software in the field of
 computational chemistry and represents and warrants to the
 licensee that it is not a competitor of Gaussian, Inc. and that
 it will not use this program in any manner prohibited above.
 ---------------------------------------------------------------
  

 Cite this work as:
 Gaussian 09, Revision D.01,
 M. J. Frisch, G. W. Trucks, H. B. Schlegel, G. E. Scuseria, 
 M. A. Robb, J. R. Cheeseman, G. Scalmani, V. Barone, B. Mennucci, 
 G. A. Petersson, H. Nakatsuji, M. Caricato, X. Li, H. P. Hratchian, 
 A. F. Izmaylov, J. Bloino, G. Zheng, J. L. Sonnenberg, M. Hada, 
 M. Ehara, K. Toyota, R. Fukuda, J. Hasegawa, M. Ishida, T. Nakajima, 
 Y. Honda, O. Kitao, H. Nakai, T. Vreven, J. A. Montgomery, Jr., 
 J. E. Peralta, F. Ogliaro, M. Bearpark, J. J. Heyd, E. Brothers, 
 K. N. Kudin, V. N. Staroverov, T. Keith, R. Kobayashi, J. Normand, 
 K. Raghavachari, A. Rendell, J. C. Burant, S. S. Iyengar, J. Tomasi, 
 M. Cossi, N. Rega, J. M. Millam, M. Klene, J. E. Knox, J. B. Cross, 
 V. Bakken, C. Adamo, J. Jaramillo, R. Gomperts, R. E. Stratmann, 
 O. Yazyev, A. J. Austin, R. Cammi, C. Pomelli, J. W. Ochterski, 
 R. L. Martin, K. Morokuma, V. G. Zakrzewski, G. A. Voth, 
 P. Salvador, J. J. Dannenberg, S. Dapprich, A. D. Daniels, 
 O. Farkas, J. B. Foresman, J. V. Ortiz, J. Cioslowski, 
 and D. J. Fox, Gaussian, Inc., Wallingford CT, 2013.
 
 ******************************************
 Gaussian 09:  ES64L-G09RevD.01 24-Apr-2013
                29-Nov-2017 
 ******************************************
 %RWF=myrwf
 %NoSave
 %chk=esp.chk
 %NprocShared=4
 Will use up to    4 processors via shared memory.
 %Mem=16GB
 ----------------------------------------------------------------------
 #HF/6-31G* SCF=tight Test Pop=MK iop(6/33=2) iop(6/42=6) opt # iop(6/5
 0=1)
 ----------------------------------------------------------------------
 1/18=20,19=15,38=1/1,3;
 2/9=110,12=2,17=6,18=5,40=1/2;
 3/5=1,6=6,7=1,11=9,16=1,25=1,30=1,71=1/1,2,3;
 4//1;
 5/5=2,32=2,38=5/2;
 6/7=2,8=2,9=2,10=2,15=8,20=1,28=1,33=2,42=6,50=1/1,2;
 7//1,2,3,16;
 1/18=20,19=15/3(2);
 2/9=110/2;
 99//99;
 2/9=110/2;
 3/5=1,6=6,7=1,11=9,16=1,25=1,30=1,71=1/1,2,3;
 4/5=5,16=3,69=1/1;
 5/5=2,32=2,38=5/2;
 7//1,2,3,16;
 1/18=20,19=15/3(-5);
 2/9=110/2;
 6/7=2,8=2,9=2,10=2,15=8,19=2,20=1,28=1,33=2,42=6,50=1/1,2;
 99/9=1/99;
 ---------------------
 remark line goes here
 ---------------------
 Symbolic Z-matrix:
 Charge =  0 Multiplicity = 1
 H                     5.72473  -0.46145  -1.16353 
 C                     4.69403  -0.74062  -1.329 
 H                     4.62772  -1.80862  -1.50081 
 H                     4.34117  -0.22674  -2.2179 
 C                     3.8701   -0.28731  -0.14294 
 O                     4.17192   0.67765   0.50661 
 H                    -2.36048   2.16579  -0.72863 
 H                    -0.14284   3.22086  -0.49165 
 C                    -1.52648   1.60384  -0.35435 
 C                    -0.27509   2.18932  -0.21911 
 Br                   -3.38398  -0.54327  -0.16676 
 C                    -1.68044   0.28203   0.00651 
 C                     0.79487   1.46151   0.26591 
 H                     1.76046   1.92159   0.3704 
 C                    -0.61757  -0.46019   0.49443 
 C                     0.63179   0.12577   0.62558 
 H                    -0.77116  -1.4865    0.77224 
 H                     2.34046  -0.1216    1.89827 
 C                     1.80743  -0.68051   1.14459 
 H                     1.45087  -1.59539   1.60245 
 N                     2.76988  -1.03404   0.11812 
 H                     2.51201  -1.73943  -0.53381 
 

 GradGradGradGradGradGradGradGradGradGradGradGradGradGradGradGradGradGrad
 Berny optimization.
 Initialization pass.
                           ----------------------------
                           !    Initial Parameters    !
                           ! (Angstroms and Degrees)  !
 --------------------------                            --------------------------
 ! Name  Definition              Value          Derivative Info.                !
 --------------------------------------------------------------------------------
 ! R1    R(1,2)                  1.0806         estimate D2E/DX2                !
 ! R2    R(2,3)                  1.0838         estimate D2E/DX2                !
 ! R3    R(2,4)                  1.0857         estimate D2E/DX2                !
 ! R4    R(2,5)                  1.5136         estimate D2E/DX2                !
 ! R5    R(5,6)                  1.2017         estimate D2E/DX2                !
 ! R6    R(5,21)                 1.3551         estimate D2E/DX2                !
 ! R7    R(7,9)                  1.073          estimate D2E/DX2                !
 ! R8    R(8,10)                 1.0751         estimate D2E/DX2                !
 ! R9    R(9,10)                 1.3882         estimate D2E/DX2                !
 ! R10   R(9,12)                 1.3788         estimate D2E/DX2                !
 ! R11   R(10,13)                1.3819         estimate D2E/DX2                !
 ! R12   R(11,12)                1.9008         estimate D2E/DX2                !
 ! R13   R(12,15)                1.3852         estimate D2E/DX2                !
 ! R14   R(13,14)                1.0747         estimate D2E/DX2                !
 ! R15   R(13,16)                1.3929         estimate D2E/DX2                !
 ! R16   R(15,16)                1.3862         estimate D2E/DX2                !
 ! R17   R(15,17)                1.0743         estimate D2E/DX2                !
 ! R18   R(16,19)                1.5171         estimate D2E/DX2                !
 ! R19   R(18,19)                1.0791         estimate D2E/DX2                !
 ! R20   R(19,20)                1.0834         estimate D2E/DX2                !
 ! R21   R(19,21)                1.4508         estimate D2E/DX2                !
 ! R22   R(21,22)                0.9945         estimate D2E/DX2                !
 ! A1    A(1,2,3)              109.7082         estimate D2E/DX2                !
 ! A2    A(1,2,4)              108.2461         estimate D2E/DX2                !
 ! A3    A(1,2,5)              108.7748         estimate D2E/DX2                !
 ! A4    A(3,2,4)              108.4668         estimate D2E/DX2                !
 ! A5    A(3,2,5)              112.7087         estimate D2E/DX2                !
 ! A6    A(4,2,5)              108.8375         estimate D2E/DX2                !
 ! A7    A(2,5,6)              121.8235         estimate D2E/DX2                !
 ! A8    A(2,5,21)             115.3333         estimate D2E/DX2                !
 ! A9    A(6,5,21)             122.8386         estimate D2E/DX2                !
 ! A10   A(7,9,10)             120.9134         estimate D2E/DX2                !
 ! A11   A(7,9,12)             120.4347         estimate D2E/DX2                !
 ! A12   A(10,9,12)            118.6517         estimate D2E/DX2                !
 ! A13   A(8,10,9)             119.3973         estimate D2E/DX2                !
 ! A14   A(8,10,13)            119.9369         estimate D2E/DX2                !
 ! A15   A(9,10,13)            120.6653         estimate D2E/DX2                !
 ! A16   A(9,12,11)            119.5013         estimate D2E/DX2                !
 ! A17   A(9,12,15)            121.3458         estimate D2E/DX2                !
 ! A18   A(11,12,15)           119.1529         estimate D2E/DX2                !
 ! A19   A(10,13,14)           120.2852         estimate D2E/DX2                !
 ! A20   A(10,13,16)           120.3329         estimate D2E/DX2                !
 ! A21   A(14,13,16)           119.3818         estimate D2E/DX2                !
 ! A22   A(12,15,16)           119.8954         estimate D2E/DX2                !
 ! A23   A(12,15,17)           119.5574         estimate D2E/DX2                !
 ! A24   A(16,15,17)           120.5468         estimate D2E/DX2                !
 ! A25   A(13,16,15)           119.1085         estimate D2E/DX2                !
 ! A26   A(13,16,19)           120.4817         estimate D2E/DX2                !
 ! A27   A(15,16,19)           120.4084         estimate D2E/DX2                !
 ! A28   A(16,19,18)           110.2701         estimate D2E/DX2                !
 ! A29   A(16,19,20)           109.7752         estimate D2E/DX2                !
 ! A30   A(16,19,21)           113.6739         estimate D2E/DX2                !
 ! A31   A(18,19,20)           107.7433         estimate D2E/DX2                !
 ! A32   A(18,19,21)           107.0175         estimate D2E/DX2                !
 ! A33   A(20,19,21)           108.153          estimate D2E/DX2                !
 ! A34   A(5,21,19)            122.7264         estimate D2E/DX2                !
 ! A35   A(5,21,22)            118.3651         estimate D2E/DX2                !
 ! A36   A(19,21,22)           117.6849         estimate D2E/DX2                !
 ! D1    D(1,2,5,6)             29.5987         estimate D2E/DX2                !
 ! D2    D(1,2,5,21)          -151.1585         estimate D2E/DX2                !
 ! D3    D(3,2,5,6)            151.4942         estimate D2E/DX2                !
 ! D4    D(3,2,5,21)           -29.263          estimate D2E/DX2                !
 ! D5    D(4,2,5,6)            -88.1363         estimate D2E/DX2                !
 ! D6    D(4,2,5,21)            91.1066         estimate D2E/DX2                !
 ! D7    D(2,5,21,19)         -174.7228         estimate D2E/DX2                !
 ! D8    D(2,5,21,22)           -7.6645         estimate D2E/DX2                !
 ! D9    D(6,5,21,19)            4.5115         estimate D2E/DX2                !
 ! D10   D(6,5,21,22)          171.5698         estimate D2E/DX2                !
 ! D11   D(7,9,10,8)             0.1453         estimate D2E/DX2                !
 ! D12   D(7,9,10,13)          179.8744         estimate D2E/DX2                !
 ! D13   D(12,9,10,8)         -179.6547         estimate D2E/DX2                !
 ! D14   D(12,9,10,13)           0.0744         estimate D2E/DX2                !
 ! D15   D(7,9,12,11)            0.1247         estimate D2E/DX2                !
 ! D16   D(7,9,12,15)         -179.8616         estimate D2E/DX2                !
 ! D17   D(10,9,12,11)         179.9257         estimate D2E/DX2                !
 ! D18   D(10,9,12,15)          -0.0606         estimate D2E/DX2                !
 ! D19   D(8,10,13,14)          -0.1206         estimate D2E/DX2                !
 ! D20   D(8,10,13,16)         179.7908         estimate D2E/DX2                !
 ! D21   D(9,10,13,14)        -179.8482         estimate D2E/DX2                !
 ! D22   D(9,10,13,16)           0.0632         estimate D2E/DX2                !
 ! D23   D(9,12,15,16)          -0.0912         estimate D2E/DX2                !
 ! D24   D(9,12,15,17)         179.653          estimate D2E/DX2                !
 ! D25   D(11,12,15,16)        179.9224         estimate D2E/DX2                !
 ! D26   D(11,12,15,17)         -0.3334         estimate D2E/DX2                !
 ! D27   D(10,13,16,15)         -0.2138         estimate D2E/DX2                !
 ! D28   D(10,13,16,19)        179.351          estimate D2E/DX2                !
 ! D29   D(14,13,16,15)        179.6985         estimate D2E/DX2                !
 ! D30   D(14,13,16,19)         -0.7367         estimate D2E/DX2                !
 ! D31   D(12,15,16,13)          0.2268         estimate D2E/DX2                !
 ! D32   D(12,15,16,19)       -179.3383         estimate D2E/DX2                !
 ! D33   D(17,15,16,13)       -179.5148         estimate D2E/DX2                !
 ! D34   D(17,15,16,19)          0.92           estimate D2E/DX2                !
 ! D35   D(13,16,19,18)         47.1402         estimate D2E/DX2                !
 ! D36   D(13,16,19,20)        165.696          estimate D2E/DX2                !
 ! D37   D(13,16,19,21)        -73.0301         estimate D2E/DX2                !
 ! D38   D(15,16,19,18)       -133.3007         estimate D2E/DX2                !
 ! D39   D(15,16,19,20)        -14.7449         estimate D2E/DX2                !
 ! D40   D(15,16,19,21)        106.529          estimate D2E/DX2                !
 ! D41   D(16,19,21,5)          93.9691         estimate D2E/DX2                !
 ! D42   D(16,19,21,22)        -73.1722         estimate D2E/DX2                !
 ! D43   D(18,19,21,5)         -28.0221         estimate D2E/DX2                !
 ! D44   D(18,19,21,22)        164.8366         estimate D2E/DX2                !
 ! D45   D(20,19,21,5)        -143.8553         estimate D2E/DX2                !
 ! D46   D(20,19,21,22)         49.0034         estimate D2E/DX2                !
 --------------------------------------------------------------------------------
 Trust Radius=3.00D-01 FncErr=1.00D-07 GrdErr=1.00D-07
 Number of steps in this run=    114 maximum allowed number of steps=    132.
 GradGradGradGradGradGradGradGradGradGradGradGradGradGradGradGradGradGrad

                          Input orientation:                          
 ---------------------------------------------------------------------
 Center     Atomic      Atomic             Coordinates (Angstroms)
 Number     Number       Type             X           Y           Z
 ---------------------------------------------------------------------
      1          1           0        5.724734   -0.461448   -1.163527
      2          6           0        4.694028   -0.740616   -1.328999
      3          1           0        4.627716   -1.808618   -1.500809
      4          1           0        4.341168   -0.226735   -2.217902
      5          6           0        3.870098   -0.287305   -0.142941
      6          8           0        4.171915    0.677647    0.506608
      7          1           0       -2.360476    2.165793   -0.728633
      8          1           0       -0.142842    3.220857   -0.491645
      9          6           0       -1.526479    1.603838   -0.354351
     10          6           0       -0.275091    2.189315   -0.219109
     11         35           0       -3.383979   -0.543270   -0.166755
     12          6           0       -1.680436    0.282031    0.006509
     13          6           0        0.794871    1.461508    0.265911
     14          1           0        1.760457    1.921589    0.370402
     15          6           0       -0.617566   -0.460193    0.494428
     16          6           0        0.631793    0.125765    0.625583
     17          1           0       -0.771163   -1.486495    0.772236
     18          1           0        2.340463   -0.121600    1.898270
     19          6           0        1.807430   -0.680508    1.144585
     20          1           0        1.450869   -1.595388    1.602453
     21          7           0        2.769875   -1.034039    0.118116
     22          1           0        2.512013   -1.739433   -0.533807
 ---------------------------------------------------------------------
                    Distance matrix (angstroms):
                    1          2          3          4          5
     1  H    0.000000
     2  C    1.080588   0.000000
     3  H    1.769767   1.083764   0.000000
     4  H    1.755292   1.085694   1.760308   0.000000
     5  C    2.124052   1.513633   2.175358   2.128624   0.000000
     6  O    2.549144   2.377714   3.227846   2.875675   1.201724
     7  H    8.512470   7.653344   8.076325   7.270086   6.721665
     8  H    6.959831   6.307911   7.005159   5.913730   5.341581
     9  C    7.582893   6.718713   7.129750   6.422858   5.722251
    10  C    6.626943   5.874393   6.454746   5.580530   4.829290
    11  Br   9.163455   8.163575   8.219979   7.999081   7.258631
    12  C    7.533810   6.592661   6.814367   6.439454   5.581658
    13  C    5.481296   4.753579   5.339075   4.647119   3.561254
    14  H    4.873120   4.310584   5.063304   4.239656   3.097308
    15  C    6.555424   5.622860   5.771673   5.656879   4.535996
    16  C    5.429897   4.590508   4.922477   4.687123   3.353785
    17  H    6.855259   5.902528   5.866719   6.055068   4.880257
    18  H    4.576395   4.041994   4.430722   4.577854   2.556127
    19  C    4.551993   3.801931   4.027996   4.234626   2.463114
    20  H    5.215591   4.454450   4.446129   4.982183   3.257323
    21  N    3.271339   2.425408   2.583111   2.928768   1.355084
    22  H    3.514451   2.528073   2.327247   2.910368   2.026289
                    6          7          8          9         10
     6  O    0.000000
     7  H    6.812674   0.000000
     8  H    5.107010   2.467230   0.000000
     9  C    5.837018   1.073048   2.132616   0.000000
    10  C    4.752648   2.146858   1.075102   1.388181   0.000000
    11  Br   7.683462   2.949964   4.977868   2.845272   4.139438
    12  C    5.886988   2.133412   3.353960   1.378803   2.379838
    13  C    3.475169   3.382506   2.132723   2.407000   1.381943
    14  H    2.716813   4.271955   2.460441   3.380855   2.136037
    15  C    4.922800   3.380742   3.840291   2.409725   2.765197
    16  C    3.584856   3.866431   3.380511   2.793404   2.407111
    17  H    5.402600   4.256493   4.914402   3.374886   3.839327
    18  H    2.435105   5.850779   4.801095   4.796319   4.082248
    19  C    2.800427   5.383476   4.658482   4.310452   3.799005
    20  H    3.711018   5.840102   5.488295   4.788395   4.541035
    21  N    2.246444   6.105441   5.192289   5.063623   4.446971
    22  H    3.111272   6.247391   5.626234   5.245863   4.827219
                   11         12         13         14         15
    11  Br   0.000000
    12  C    1.900842   0.000000
    13  C    4.655010   2.754197   0.000000
    14  H    5.729685   3.828879   1.074686   0.000000
    15  C    2.845541   1.385155   2.395857   3.367976   0.000000
    16  C    4.147509   2.398765   1.392899   2.136348   1.386162
    17  H    2.932266   2.130915   3.376322   4.264459   1.074274
    18  H    6.100112   4.461985   2.749487   2.616373   3.291710
    19  C    5.356228   3.793008   2.526970   2.715230   2.520287
    20  H    5.254789   3.984572   3.400190   3.739374   2.606686
    21  N    6.179962   4.642172   3.185944   3.133418   3.456250
    22  H    6.027292   4.685604   3.719429   3.845193   3.533835
                   16         17         18         19         20
    16  C    0.000000
    17  H    2.142236   0.000000
    18  H    2.144872   3.579540   0.000000
    19  C    1.517090   2.727160   1.079140   0.000000
    20  H    2.141852   2.374562   1.746693   1.083413   0.000000
    21  N    2.484766   3.629262   2.045944   1.450835   2.063528
    22  H    2.891086   3.542453   2.926057   2.105887   2.389641
                   21         22
    21  N    0.000000
    22  H    0.994524   0.000000
 Stoichiometry    C9H10BrNO
 Framework group  C1[X(C9H10BrNO)]
 Deg. of freedom    60
 Full point group                 C1      NOp   1
 Largest Abelian subgroup         C1      NOp   1
 Largest concise Abelian subgroup C1      NOp   1
                         Standard orientation:                         
 ---------------------------------------------------------------------
 Center     Atomic      Atomic             Coordinates (Angstroms)
 Number     Number       Type             X           Y           Z
 ---------------------------------------------------------------------
      1          1           0       -5.724734   -0.461448    1.163527
      2          6           0       -4.694028   -0.740616    1.328999
      3          1           0       -4.627716   -1.808618    1.500809
      4          1           0       -4.341168   -0.226735    2.217902
      5          6           0       -3.870098   -0.287305    0.142941
      6          8           0       -4.171915    0.677647   -0.506608
      7          1           0        2.360476    2.165793    0.728633
      8          1           0        0.142842    3.220857    0.491645
      9          6           0        1.526479    1.603838    0.354351
     10          6           0        0.275091    2.189315    0.219109
     11         35           0        3.383979   -0.543270    0.166755
     12          6           0        1.680436    0.282031   -0.006509
     13          6           0       -0.794871    1.461508   -0.265911
     14          1           0       -1.760457    1.921589   -0.370402
     15          6           0        0.617566   -0.460193   -0.494428
     16          6           0       -0.631793    0.125765   -0.625583
     17          1           0        0.771163   -1.486495   -0.772236
     18          1           0       -2.340463   -0.121600   -1.898270
     19          6           0       -1.807430   -0.680508   -1.144585
     20          1           0       -1.450869   -1.595388   -1.602453
     21          7           0       -2.769875   -1.034039   -0.118116
     22          1           0       -2.512013   -1.739433    0.533807
 ---------------------------------------------------------------------
 Rotational constants (GHZ):      1.8274466      0.2513991      0.2355328
 Standard basis: 6-31G(d) (6D, 7F)
 There are   215 symmetry adapted cartesian basis functions of A   symmetry.
 There are   215 symmetry adapted basis functions of A   symmetry.
   215 basis functions,   431 primitive gaussians,   215 cartesian basis functions
    57 alpha electrons       57 beta electrons
       nuclear repulsion energy       901.4395010906 Hartrees.
 NAtoms=   22 NActive=   22 NUniq=   22 SFac= 1.00D+00 NAtFMM=   60 NAOKFM=F Big=F
 Integral buffers will be    131072 words long.
 Raffenetti 1 integral format.
 Two-electron integral symmetry is turned on.
 One-electron integrals computed using PRISM.
 NBasis=   215 RedAO= T EigKep=  4.13D-04  NBF=   215
 NBsUse=   215 1.00D-06 EigRej= -1.00D+00 NBFU=   215
 ExpMin= 1.43D-01 ExpMax= 5.74D+05 ExpMxC= 5.74D+03 IAcc=2 IRadAn=         4 AccDes= 0.00D+00
 Harris functional with IExCor=  205 and IRadAn=       4 diagonalized for initial guess.
 HarFok:  IExCor=  205 AccDes= 0.00D+00 IRadAn=         4 IDoV= 1 UseB2=F ITyADJ=14
 ICtDFT=  3500011 ScaDFX=  1.000000  1.000000  1.000000  1.000000
 FoFCou: FMM=F IPFlag=           0 FMFlag=      100000 FMFlg1=           0
         NFxFlg=           0 DoJE=T BraDBF=F KetDBF=T FulRan=T
         wScrn=  0.000000 ICntrl=     500 IOpCl=  0 I1Cent=   200000004 NGrid=           0
         NMat0=    1 NMatS0=      1 NMatT0=    0 NMatD0=    1 NMtDS0=    0 NMtDT0=    0
 Petite list used in FoFCou.
 Keep R1 ints in memory in canonical form, NReq=274794690.
 Requested convergence on RMS density matrix=1.00D-08 within 128 cycles.
 Requested convergence on MAX density matrix=1.00D-06.
 Requested convergence on             energy=1.00D-06.
 No special actions if energy rises.
 SCF Done:  E(RHF) =  -3045.86206099     A.U. after   15 cycles
            NFock= 15  Conv=0.58D-08     -V/T= 2.0040

 **********************************************************************

            Population analysis using the SCF density.

 **********************************************************************

 Orbital symmetries:
 BldTbl:  Degeneracy threshold= 1.00D-02
       Occupied  (A) (A) (A) (A) (A) (A) (A) (A) (A) (A) (A) (A)
                 (A) (A) (A) (A) (A) (A) (A) (A) (A) (A) (A) (A)
                 (A) (A) (A) (A) (A) (A) (A) (A) (A) (A) (A) (A)
                 (A) (A) (A) (A) (A) (A) (A) (A) (A) (A) (A) (A)
                 (A) (A) (A) (A) (A) (A) (A) (A) (A)
       Virtual   (A) (A) (A) (A) (A) (A) (A) (A) (A) (A) (A) (A)
                 (A) (A) (A) (A) (A) (A) (A) (A) (A) (A) (A) (A)
                 (A) (A) (A) (A) (A) (A) (A) (A) (A) (A) (A) (A)
                 (A) (A) (A) (A) (A) (A) (A) (A) (A) (A) (A) (A)
                 (A) (A) (A) (A) (A) (A) (A) (A) (A) (A) (A) (A)
                 (A) (A) (A) (A) (A) (A) (A) (A) (A) (A) (A) (A)
                 (A) (A) (A) (A) (A) (A) (A) (A) (A) (A) (A) (A)
                 (A) (A) (A) (A) (A) (A) (A) (A) (A) (A) (A) (A)
                 (A) (A) (A) (A) (A) (A) (A) (A) (A) (A) (A) (A)
                 (A) (A) (A) (A) (A) (A) (A) (A) (A) (A) (A) (A)
                 (A) (A) (A) (A) (A) (A) (A) (A) (A) (A) (A) (A)
                 (A) (A) (A) (A) (A) (A) (A) (A) (A) (A) (A) (A)
                 (A) (A) (A) (A) (A) (A) (A) (A) (A) (A) (A) (A)
                 (A) (A)
 The electronic state is 1-A.
 Alpha  occ. eigenvalues -- -490.06467 -64.47619 -58.61567 -58.61384 -58.61372
 Alpha  occ. eigenvalues --  -20.52583 -15.59138 -11.35307 -11.29930 -11.27513
 Alpha  occ. eigenvalues --  -11.25227 -11.24915 -11.24830 -11.24543 -11.23830
 Alpha  occ. eigenvalues --  -11.23651  -9.72450  -7.47369  -7.46498  -7.46494
 Alpha  occ. eigenvalues --   -3.21259  -3.20837  -3.20835  -3.19825  -3.19824
 Alpha  occ. eigenvalues --   -1.39436  -1.24264  -1.17834  -1.07592  -1.05055
 Alpha  occ. eigenvalues --   -1.01302  -0.97016  -0.93769  -0.83866  -0.80717
 Alpha  occ. eigenvalues --   -0.79434  -0.70747  -0.69634  -0.66137  -0.65553
 Alpha  occ. eigenvalues --   -0.64100  -0.61967  -0.59502  -0.58682  -0.56905
 Alpha  occ. eigenvalues --   -0.56766  -0.55072  -0.53212  -0.52696  -0.50463
 Alpha  occ. eigenvalues --   -0.48651  -0.43442  -0.42300  -0.41281  -0.39554
 Alpha  occ. eigenvalues --   -0.34700  -0.32908
 Alpha virt. eigenvalues --    0.12407   0.13031   0.16819   0.20104   0.21575
 Alpha virt. eigenvalues --    0.25846   0.26625   0.28384   0.30081   0.30547
 Alpha virt. eigenvalues --    0.31536   0.32225   0.33609   0.34430   0.34850
 Alpha virt. eigenvalues --    0.38686   0.39634   0.41693   0.43733   0.46920
 Alpha virt. eigenvalues --    0.47807   0.48604   0.51348   0.52717   0.58927
 Alpha virt. eigenvalues --    0.59446   0.64462   0.65387   0.66656   0.67000
 Alpha virt. eigenvalues --    0.68227   0.69155   0.71621   0.72907   0.73484
 Alpha virt. eigenvalues --    0.74972   0.76307   0.76894   0.77985   0.80241
 Alpha virt. eigenvalues --    0.81836   0.82112   0.82728   0.84750   0.85347
 Alpha virt. eigenvalues --    0.86321   0.88353   0.90217   0.92732   0.95834
 Alpha virt. eigenvalues --    0.97367   0.98789   0.99433   1.01147   1.02126
 Alpha virt. eigenvalues --    1.02893   1.06361   1.06950   1.08939   1.11029
 Alpha virt. eigenvalues --    1.11955   1.12737   1.14545   1.15701   1.17190
 Alpha virt. eigenvalues --    1.17668   1.18163   1.20015   1.20597   1.22299
 Alpha virt. eigenvalues --    1.23936   1.24097   1.28778   1.32661   1.35629
 Alpha virt. eigenvalues --    1.38205   1.40501   1.44654   1.45429   1.48520
 Alpha virt. eigenvalues --    1.49206   1.50173   1.54752   1.59428   1.61340
 Alpha virt. eigenvalues --    1.66651   1.68214   1.71336   1.72459   1.74689
 Alpha virt. eigenvalues --    1.75708   1.77099   1.80837   1.82565   1.83691
 Alpha virt. eigenvalues --    1.85961   1.94197   2.00864   2.04449   2.08387
 Alpha virt. eigenvalues --    2.11354   2.11688   2.13215   2.14199   2.17375
 Alpha virt. eigenvalues --    2.20360   2.24017   2.25076   2.26326   2.29922
 Alpha virt. eigenvalues --    2.31966   2.36728   2.38876   2.40719   2.42687
 Alpha virt. eigenvalues --    2.45262   2.47649   2.50402   2.52509   2.55599
 Alpha virt. eigenvalues --    2.56564   2.60549   2.62790   2.65951   2.67796
 Alpha virt. eigenvalues --    2.70134   2.74499   2.77210   2.81175   2.88206
 Alpha virt. eigenvalues --    2.92106   2.94438   2.99406   3.04877   3.04952
 Alpha virt. eigenvalues --    3.06047   3.11463   3.12751   3.15927   3.22671
 Alpha virt. eigenvalues --    3.28399   3.38158   3.43503   3.54384   3.78591
 Alpha virt. eigenvalues --    4.39183   4.47889   4.50212   4.53137   4.57163
 Alpha virt. eigenvalues --    4.63815   4.73857   4.75827   4.83257   4.92514
 Alpha virt. eigenvalues --    5.13068   9.27943  74.48939
          Condensed to atoms (all electrons):
               1          2          3          4          5          6
     1  H    0.463981   0.384202  -0.021427  -0.017877  -0.030776   0.002806
     2  C    0.384202   5.257657   0.375382   0.377077   0.372461  -0.070857
     3  H   -0.021427   0.375382   0.524842  -0.024039  -0.037686   0.002366
     4  H   -0.017877   0.377077  -0.024039   0.489966  -0.027196   0.000036
     5  C   -0.030776   0.372461  -0.037686  -0.027196   4.141437   0.598398
     6  O    0.002806  -0.070857   0.002366   0.000036   0.598398   8.167240
     7  H    0.000000   0.000000   0.000000   0.000000   0.000000   0.000000
     8  H    0.000000   0.000000   0.000000   0.000000   0.000001  -0.000002
     9  C    0.000000   0.000000   0.000000   0.000000  -0.000001   0.000000
    10  C    0.000000   0.000002   0.000000  -0.000001   0.000057   0.000098
    11  Br   0.000000   0.000000   0.000000   0.000000   0.000000   0.000000
    12  C    0.000000   0.000000   0.000000   0.000000  -0.000002   0.000000
    13  C    0.000001  -0.000017  -0.000004   0.000026   0.002182  -0.001538
    14  H   -0.000001   0.000163  -0.000002  -0.000028   0.000821   0.008102
    15  C    0.000000  -0.000009   0.000001   0.000001  -0.000079  -0.000036
    16  C   -0.000002  -0.000440   0.000010   0.000081  -0.001851  -0.002858
    17  H    0.000000   0.000000   0.000000   0.000000  -0.000001   0.000000
    18  H    0.000004   0.000352  -0.000028  -0.000009  -0.001071   0.006865
    19  C   -0.000106   0.004610  -0.000001  -0.000196  -0.022500   0.005325
    20  H    0.000003  -0.000010  -0.000024  -0.000002   0.002347   0.000395
    21  N    0.003704  -0.116647   0.005612   0.000462   0.270390  -0.104398
    22  H    0.000047   0.000008   0.000554   0.000020  -0.017725   0.002418
               7          8          9         10         11         12
     1  H    0.000000   0.000000   0.000000   0.000000   0.000000   0.000000
     2  C    0.000000   0.000000   0.000000   0.000002   0.000000   0.000000
     3  H    0.000000   0.000000   0.000000   0.000000   0.000000   0.000000
     4  H    0.000000   0.000000   0.000000  -0.000001   0.000000   0.000000
     5  C    0.000000   0.000001  -0.000001   0.000057   0.000000  -0.000002
     6  O    0.000000  -0.000002   0.000000   0.000098   0.000000   0.000000
     7  H    0.443894  -0.001571   0.382672  -0.027843  -0.001196  -0.030337
     8  H   -0.001571   0.457544  -0.029387   0.381785  -0.000103   0.002123
     9  C    0.382672  -0.029387   4.931920   0.528655  -0.061413   0.560146
    10  C   -0.027843   0.381785   0.528655   4.910025   0.003582  -0.042380
    11  Br  -0.001196  -0.000103  -0.061413   0.003582  34.964282   0.276959
    12  C   -0.030337   0.002123   0.560146  -0.042380   0.276959   4.792857
    13  C    0.002325  -0.026949  -0.046135   0.542212   0.000150  -0.033114
    14  H   -0.000088  -0.001293   0.002234  -0.025696   0.000005   0.000219
    15  C    0.002784   0.000378  -0.047942  -0.037564  -0.061566   0.542002
    16  C    0.000092   0.002105  -0.031622  -0.039155   0.003536  -0.042490
    17  H   -0.000101   0.000011   0.002838  -0.000040  -0.001006  -0.029382
    18  H    0.000000   0.000000  -0.000003   0.000058   0.000002  -0.000042
    19  C    0.000006  -0.000118   0.000304   0.002245  -0.000114   0.002518
    20  H    0.000000   0.000002  -0.000020  -0.000034  -0.000009   0.000260
    21  N    0.000000   0.000005   0.000002  -0.000032   0.000002   0.000000
    22  H    0.000000   0.000000  -0.000005  -0.000005   0.000000   0.000003
              13         14         15         16         17         18
     1  H    0.000001  -0.000001   0.000000  -0.000002   0.000000   0.000004
     2  C   -0.000017   0.000163  -0.000009  -0.000440   0.000000   0.000352
     3  H   -0.000004  -0.000002   0.000001   0.000010   0.000000  -0.000028
     4  H    0.000026  -0.000028   0.000001   0.000081   0.000000  -0.000009
     5  C    0.002182   0.000821  -0.000079  -0.001851  -0.000001  -0.001071
     6  O   -0.001538   0.008102  -0.000036  -0.002858   0.000000   0.006865
     7  H    0.002325  -0.000088   0.002784   0.000092  -0.000101   0.000000
     8  H   -0.026949  -0.001293   0.000378   0.002105   0.000011   0.000000
     9  C   -0.046135   0.002234  -0.047942  -0.031622   0.002838  -0.000003
    10  C    0.542212  -0.025696  -0.037564  -0.039155  -0.000040   0.000058
    11  Br   0.000150   0.000005  -0.061566   0.003536  -0.001006   0.000002
    12  C   -0.033114   0.000219   0.542002  -0.042490  -0.029382  -0.000042
    13  C    4.943037   0.372676  -0.046915   0.552422   0.002899  -0.002751
    14  H    0.372676   0.417814   0.002438  -0.026976  -0.000101   0.000551
    15  C   -0.046915   0.002438   4.970233   0.552605   0.379651   0.001751
    16  C    0.552422  -0.026976   0.552605   4.886840  -0.030974  -0.041029
    17  H    0.002899  -0.000101   0.379651  -0.030974   0.454115   0.000038
    18  H   -0.002751   0.000551   0.001751  -0.041029   0.000038   0.445989
    19  C   -0.041099  -0.000367  -0.035011   0.326172  -0.002872   0.410466
    20  H    0.003238  -0.000047  -0.000717  -0.060253   0.002616  -0.020516
    21  N   -0.000796  -0.001927  -0.001091  -0.074883   0.000139  -0.039969
    22  H    0.000238  -0.000037   0.000879   0.001297   0.000041   0.003007
              19         20         21         22
     1  H   -0.000106   0.000003   0.003704   0.000047
     2  C    0.004610  -0.000010  -0.116647   0.000008
     3  H   -0.000001  -0.000024   0.005612   0.000554
     4  H   -0.000196  -0.000002   0.000462   0.000020
     5  C   -0.022500   0.002347   0.270390  -0.017725
     6  O    0.005325   0.000395  -0.104398   0.002418
     7  H    0.000006   0.000000   0.000000   0.000000
     8  H   -0.000118   0.000002   0.000005   0.000000
     9  C    0.000304  -0.000020   0.000002  -0.000005
    10  C    0.002245  -0.000034  -0.000032  -0.000005
    11  Br  -0.000114  -0.000009   0.000002   0.000000
    12  C    0.002518   0.000260   0.000000   0.000003
    13  C   -0.041099   0.003238  -0.000796   0.000238
    14  H   -0.000367  -0.000047  -0.001927  -0.000037
    15  C   -0.035011  -0.000717  -0.001091   0.000879
    16  C    0.326172  -0.060253  -0.074883   0.001297
    17  H   -0.002872   0.002616   0.000139   0.000041
    18  H    0.410466  -0.020516  -0.039969   0.003007
    19  C    4.921770   0.419385   0.194089  -0.022724
    20  H    0.419385   0.507799  -0.042813  -0.002122
    21  N    0.194089  -0.042813   7.368831   0.322580
    22  H   -0.022724  -0.002122   0.322580   0.328746
 Mulliken charges:
               1
     1  H    0.215440
     2  C   -0.583935
     3  H    0.174446
     4  H    0.201679
     5  C    0.750796
     6  O   -0.614361
     7  H    0.229363
     8  H    0.215468
     9  C   -0.192242
    10  C   -0.195968
    11  Br  -0.123111
    12  C    0.000661
    13  C   -0.222089
    14  H    0.251542
    15  C   -0.221793
    16  C    0.027372
    17  H    0.222130
    18  H    0.236337
    19  C   -0.161781
    20  H    0.190523
    21  N   -0.783260
    22  H    0.382782
 Sum of Mulliken charges =   0.00000
 Mulliken charges with hydrogens summed into heavy atoms:
               1
     2  C    0.007629
     5  C    0.750796
     6  O   -0.614361
     9  C    0.037122
    10  C    0.019500
    11  Br  -0.123111
    12  C    0.000661
    13  C    0.029453
    15  C    0.000337
    16  C    0.027372
    19  C    0.265079
    21  N   -0.400478
 DipInt: DoE/N= T F RetVal/Mat= T F Init=T NMatP=  1 IDeriv=0 Min/MaxMlt=  0  4
 Entering OneElI...
 OneElI was handed  2147362583 working-precision words.
 Multipole integrals L=0 to 4 MinM= 0 MaxM= 0.
 Requested accuracy = 0.1000D-12
 ShPair: Thresh= 1.00D-13 NBox=     0 BxSize= 0.00D+00 RnKept= 1.73D+01
         NSMCal=                 2926 NSMKep=                2501
 PrsmSu:  NPrtUS=   1 ThrOK=F IAlg=1 NPAlg=1 LenDen=           0.
 Prism:   IPart=     0 DynPar=F LinDyn=F Incr=          25.
 PRISM was handed  2147134863 working-precision words and  2501 shell-pairs
 IPart=  0 NShTot=        2501 NBatch=          92 AvBLen=        27.2
 PrSmSu:  NxtVal=             26.
 Electronic moments (au):
       -114.00000000         -0.21062007         -0.73965058          0.67328336
      -3539.08137943       -474.62149599       -217.01244554          8.48623741
         -5.61022839          1.51915576       5027.41949780       -844.85975716
        -43.43722542        184.18663099       2225.95629014      -1704.50603378
        840.72767722        119.83701974        -97.19684585       -329.67677223
    -187379.10884914      -6549.84882693      -1816.50413298        518.11219097
       9881.90334062      -1494.29074436       -411.81305223       1250.25167387
         59.23245799      -8660.41181968      -8620.93482538       -888.27110456
       3408.45333316          0.27281409      -1027.76305443
 Electronic spatial extent (au):  <R**2>=           4230.7153
 DipInt: DoE/N= F T RetVal/Mat= T F Init=T NMatP=  1 IDeriv=0 Min/MaxMlt=  0  4
 Nuclear    moments (au):
        114.00000000          0.00000000          0.00000000          0.00000000
       3469.20421016        417.78695694        155.24539047          0.00000000
          0.00016940         -0.00004341      -4875.16464254        828.06295539
         49.23056993       -140.55696921      -2287.20631416       1764.66531985
       -813.52349351       -134.49946009        108.89610909        334.39293144
     176441.94694807       5045.10857524       1051.66508789       -255.41535000
     -10251.54018322       1382.12922538        432.41546725      -1195.71766566
        -62.73006265       6611.00483237       6735.66965909        478.89068437
      -3395.00827195          7.68171795        987.25037258
 Total      moments (au):
          0.00000000         -0.21062007         -0.73965058          0.67328336
        -69.87716927        -56.83453905        -61.76705507          8.48623741
         -5.61005899          1.51911235        152.25485526        -16.79680176
          5.79334452         43.62966178        -61.25002402         60.15928606
         27.20418372        -14.66244035         11.69926325          4.71615921
     -10937.16190107      -1504.74025169       -764.83904509        262.69684096
       -369.63684259       -112.16151898         20.60241502         54.53400821
         -3.49760467      -2049.40698731      -1885.26516629       -409.38042019
         13.44506121          7.95453204        -40.51268184
 Traceless Quadrup. (au):
         -7.05091481          5.99171541          1.05919940          8.48623741
         -5.61005899          1.51911235
 Charge=              0.0000 electrons
 Dipole moment (field-independent basis, Debye):
    X=             -0.5353    Y=             -1.8800    Z=              1.7113  Tot=              2.5980
 Quadrupole moment (field-independent basis, Debye-Ang):
   XX=            -93.9872   YY=            -76.4444   ZZ=            -83.0788
   XY=             11.4143   XZ=             -7.5457   YZ=              2.0433
 Traceless Quadrupole moment (field-independent basis, Debye-Ang):
   XX=             -9.4837   YY=              8.0591   ZZ=              1.4247
   XY=             11.4143   XZ=             -7.5457   YZ=              2.0433
 Octapole moment (field-independent basis, Debye-Ang**2):
  XXX=            108.3691  YYY=            -11.9553  ZZZ=              4.1235  XYY=             31.0539
  XXY=            -43.5954  XXZ=             42.8191  XZZ=             19.3629  YZZ=            -10.4362
  YYZ=              8.3271  XYZ=              3.3568
 Hexadecapole moment (field-independent basis, Debye-Ang**3):
 XXXX=          -4119.4594 YYYY=           -566.7573 ZZZZ=           -288.0750 XXXY=             98.9442
 XXXZ=           -139.2230 YYYX=            -42.2454 YYYZ=              7.7599 ZZZX=             20.5401
 ZZZY=             -1.3174 XXYY=           -771.9049 XXZZ=           -710.0812 YYZZ=           -154.1923
 XXYZ=              5.0641 YYXZ=              2.9961 ZZXY=            -15.2590
 N-N= 9.014395010906D+02 E-N=-9.051124411309D+03  KE= 3.033717789546D+03
 Entering OneElI...
 OneElI was handed  2147385038 working-precision words.
 Calculate electrostatic properties
    NBasis =   215  MinDer = 0  MaxDer = 0
    NGrid  =    22  NMatD  =   1
 Requested accuracy = 0.1000D-12
 PrtBox:  NBox=     1 Levels=  1 BoxLen=   32.44 SMaxX=       17.21
          Shift=           10.818179            3.417793            3.587211
 Box      1 Number                   0 centers from      1 to     76:
 ShPair: Thresh= 1.00D-13 NBox=     1 BxSize= 3.24D+01 RnKept= 1.73D+01
         NSMCal=                 2926 NSMKep=                2233
 PrsmSu:  NPrtUS=   4 ThrOK=T IAlg=1 NPAlg=1 LenDen=           0.
 Prism:   IPart=     0 DynPar=F LinDyn=F Incr=         122.
 PRISM was handed   536741711 working-precision words and  2233 shell-pairs
 PRISM was handed   536741711 working-precision words and  2233 shell-pairs
 PRISM was handed   536741711 working-precision words and  2233 shell-pairs
 PRISM was handed   536741711 working-precision words and  2233 shell-pairs
 IPart=  2 NShTot=       12012 NBatch=         546 AvBLen=        22.0
 IPart=  1 NShTot=       12496 NBatch=         568 AvBLen=        22.0
 IPart=  3 NShTot=       11572 NBatch=         526 AvBLen=        22.0
 IPart=  0 NShTot=       13046 NBatch=         593 AvBLen=        22.0
 PrSmSu:  NxtVal=            489.
 --------------------------------------------------------
       Center         ----      EFG at Nuclei      ----
                      3XX-RR        3YY-RR        3ZZ-RR
 --------------------------------------------------------
     1   Atom       -0.277607      0.131645      0.145961
     2   Atom        0.015255      0.004550     -0.019805
     3   Atom        0.153375     -0.300671      0.147295
     4   Atom        0.105696      0.054614     -0.160309
     5   Atom       -0.020713      0.003308      0.017405
     6   Atom        0.843353     -0.819100     -0.024253
     7   Atom       -0.135553      0.020362      0.115191
     8   Atom        0.147002     -0.288263      0.141262
     9   Atom        0.157863      0.093773     -0.251636
    10   Atom        0.167191      0.114022     -0.281213
    11   Atom       -4.788572      1.483400      3.305172
    12   Atom       -0.182581      0.229377     -0.046797
    13   Atom        0.148643      0.129543     -0.278187
    14   Atom       -0.224263      0.060645      0.163617
    15   Atom        0.146064      0.090828     -0.236892
    16   Atom        0.130276      0.154123     -0.284399
    17   Atom        0.142118     -0.284248      0.142129
    18   Atom        0.043390      0.035533     -0.078924
    19   Atom       -0.042796      0.116922     -0.074126
    20   Atom        0.099804     -0.175662      0.075858
    21   Atom       -0.145990      0.135940      0.010051
    22   Atom        0.155424     -0.095635     -0.059789
 --------------------------------------------------------
                        XY            XZ            YZ
 --------------------------------------------------------
     1   Atom        0.115774     -0.066435      0.020914
     2   Atom       -0.029633      0.043367      0.014698
     3   Atom        0.032261      0.002984      0.074077
     4   Atom       -0.076835     -0.122089     -0.180453
     5   Atom       -0.201377     -0.260848     -0.367328
     6   Atom       -0.191374     -1.115826      0.195025
     7   Atom       -0.195035     -0.135761     -0.095215
     8   Atom        0.057932      0.010095     -0.122989
     9   Atom       -0.044866      0.102292      0.110099
    10   Atom       -0.015086      0.123451      0.134542
    11   Atom        3.961558     -0.833384      0.411057
    12   Atom        0.229156      0.051493      0.158630
    13   Atom       -0.025074      0.117894      0.138294
    14   Atom        0.185456     -0.044911      0.013625
    15   Atom       -0.053036      0.088740      0.105886
    16   Atom       -0.060587      0.087287      0.130408
    17   Atom        0.063492      0.010838     -0.125931
    18   Atom        0.109174     -0.155424      0.174204
    19   Atom       -0.120009      0.195725      0.014070
    20   Atom        0.126424      0.071278     -0.163907
    21   Atom        0.457071      0.453976      0.578267
    22   Atom        0.142094     -0.079919      0.321231
 --------------------------------------------------------


 ---------------------------------------------------------------------------------
              Nuclear Quadrupole Coupling Constant in Principal Axis System
 ---------------------------------------------------------------------------------

       Atom             a.u.   MegaHertz   Gauss  10(-4) cm-1        Axes

              Baa    -6.7907   499.413   178.203   166.586  0.8964 -0.4337  0.0917
    11 Br(79) Bbb     3.3869  -249.085   -88.880   -83.086 -0.2794 -0.3922  0.8764
              Bcc     3.4038  -250.327   -89.323   -83.500  0.3442  0.8112  0.4727
 
              Baa    -0.5349     2.569     0.917     0.857 -0.5919 -0.2557  0.7644
    21 N(14)  Bbb    -0.4774     2.293     0.818     0.765 -0.6432  0.7214 -0.2567
              Bcc     1.0123    -4.862    -1.735    -1.622  0.4858  0.6436  0.5914
 

 ---------------------------------------------------------------------------------

 No NMR shielding tensors so no spin-rotation constants.
 Leave Link  601 at Wed Nov 29 20:12:39 2017, MaxMem=  2147483648 cpu:         0.4
 FitSet:  NAtFit=    22 NAtPot=    22 NAtFrz=     0 MDM=    26 TotChg=   0.00000
 Merz-Kollman atomic radii used.
 Atom Element Radius
    1     1    1.20
    2     6    1.50
    3     1    1.20
    4     1    1.20
    5     6    1.50
    6     8    1.40
    7     1    1.20
    8     1    1.20
    9     6    1.50
   10     6    1.50
   11    35    2.30
   12     6    1.50
   13     6    1.50
   14     1    1.20
   15     6    1.50
   16     6    1.50
   17     1    1.20
   18     1    1.20
   19     6    1.50
   20     1    1.20
   21     7    1.50
   22     1    1.20
 Generate VDW surfaces: Layer= 4 Dens= 6 Start= 1.400 Inc= 0.200

 **********************************************************************

            Electrostatic Properties Using The SCF Density

 **********************************************************************

       Atomic Center    1 is at  -5.724734 -0.461448  1.163527
       Atomic Center    2 is at  -4.694028 -0.740616  1.328999
       Atomic Center    3 is at  -4.627716 -1.808618  1.500809
       Atomic Center    4 is at  -4.341168 -0.226735  2.217902
       Atomic Center    5 is at  -3.870098 -0.287305  0.142941
       Atomic Center    6 is at  -4.171915  0.677647 -0.506608
       Atomic Center    7 is at   2.360476  2.165793  0.728633
       Atomic Center    8 is at   0.142842  3.220857  0.491645
       Atomic Center    9 is at   1.526479  1.603838  0.354351
       Atomic Center   10 is at   0.275091  2.189315  0.219109
       Atomic Center   11 is at   3.383979 -0.543270  0.166755
       Atomic Center   12 is at   1.680436  0.282031 -0.006509
       Atomic Center   13 is at  -0.794871  1.461508 -0.265911
       Atomic Center   14 is at  -1.760457  1.921589 -0.370402
       Atomic Center   15 is at   0.617566 -0.460193 -0.494428
       Atomic Center   16 is at  -0.631793  0.125765 -0.625583
       Atomic Center   17 is at   0.771163 -1.486495 -0.772236
       Atomic Center   18 is at  -2.340463 -0.121600 -1.898270
       Atomic Center   19 is at  -1.807430 -0.680508 -1.144585
       Atomic Center   20 is at  -1.450869 -1.595388 -1.602453
       Atomic Center   21 is at  -2.769875 -1.034039 -0.118116
       Atomic Center   22 is at  -2.512013 -1.739433  0.533807
      ESP Fit Center   23 is at  -6.144734  0.266013  2.618450
      ESP Fit Center   24 is at  -6.452195 -0.041448  2.618450
      ESP Fit Center   25 is at  -6.564734 -0.461448  2.618450
      ESP Fit Center   26 is at  -6.452195 -0.881448  2.618450
      ESP Fit Center   27 is at  -6.049829  0.681143  2.351466
      ESP Fit Center   28 is at  -6.440627  0.486548  2.351466
      ESP Fit Center   29 is at  -6.734740  0.163921  2.351466
      ESP Fit Center   30 is at  -6.892446 -0.243165  2.351466
      ESP Fit Center   31 is at  -6.892446 -0.679731  2.351466
      ESP Fit Center   32 is at  -6.734740 -1.086818  2.351466
      ESP Fit Center   33 is at  -6.440627 -1.409444  2.351466
      ESP Fit Center   34 is at  -6.048485  0.956997  2.003527
      ESP Fit Center   35 is at  -6.452195  0.798552  2.003527
      ESP Fit Center   36 is at  -6.791268  0.528151  2.003527
      ESP Fit Center   37 is at  -7.035574  0.169819  2.003527
      ESP Fit Center   38 is at  -7.163406 -0.244603  2.003527
      ESP Fit Center   39 is at  -7.163406 -0.678293  2.003527
      ESP Fit Center   40 is at  -7.035574 -1.092715  2.003527
      ESP Fit Center   41 is at  -6.791268 -1.451047  2.003527
      ESP Fit Center   42 is at  -6.452195 -1.721448  2.003527
      ESP Fit Center   43 is at  -5.724734  1.161307  1.598343
      ESP Fit Center   44 is at  -6.144734  1.106013  1.598343
      ESP Fit Center   45 is at  -6.536112  0.943899  1.598343
      ESP Fit Center   46 is at  -6.872195  0.686013  1.598343
      ESP Fit Center   47 is at  -7.130081  0.349930  1.598343
      ESP Fit Center   48 is at  -7.292195 -0.041448  1.598343
      ESP Fit Center   49 is at  -7.347489 -0.461448  1.598343
      ESP Fit Center   50 is at  -7.292195 -0.881448  1.598343
      ESP Fit Center   51 is at  -7.130081 -1.272826  1.598343
      ESP Fit Center   52 is at  -6.872195 -1.608909  1.598343
      ESP Fit Center   53 is at  -6.536112 -1.866795  1.598343
      ESP Fit Center   54 is at  -5.619246  1.215237  1.163527
      ESP Fit Center   55 is at  -6.039535  1.188795  1.163527
      ESP Fit Center   56 is at  -6.440043  1.058661  1.163527
      ESP Fit Center   57 is at  -6.795606  0.833014  1.163527
      ESP Fit Center   58 is at  -7.083882  0.526031  1.163527
      ESP Fit Center   59 is at  -7.286758  0.157001  1.163527
      ESP Fit Center   60 is at  -7.391487 -0.250888  1.163527
      ESP Fit Center   61 is at  -7.391487 -0.672008  1.163527
      ESP Fit Center   62 is at  -7.286758 -1.079897  1.163527
      ESP Fit Center   63 is at  -7.083882 -1.448927  1.163527
      ESP Fit Center   64 is at  -6.795606 -1.755910  1.163527
      ESP Fit Center   65 is at  -6.440043 -1.981557  1.163527
      ESP Fit Center   66 is at  -5.724734  1.161307  0.728711
      ESP Fit Center   67 is at  -6.144734  1.106013  0.728711
      ESP Fit Center   68 is at  -6.536112  0.943899  0.728711
      ESP Fit Center   69 is at  -6.872195  0.686013  0.728711
      ESP Fit Center   70 is at  -7.130081  0.349930  0.728711
      ESP Fit Center   71 is at  -7.292195 -0.041448  0.728711
      ESP Fit Center   72 is at  -7.347489 -0.461448  0.728711
      ESP Fit Center   73 is at  -7.292195 -0.881448  0.728711
      ESP Fit Center   74 is at  -7.130081 -1.272826  0.728711
      ESP Fit Center   75 is at  -6.872195 -1.608909  0.728711
      ESP Fit Center   76 is at  -6.536112 -1.866795  0.728711
      ESP Fit Center   77 is at  -6.048485  0.956997  0.323527
      ESP Fit Center   78 is at  -6.452195  0.798552  0.323527
      ESP Fit Center   79 is at  -6.791268  0.528151  0.323527
      ESP Fit Center   80 is at  -7.035574  0.169819  0.323527
      ESP Fit Center   81 is at  -7.163406 -0.244603  0.323527
      ESP Fit Center   82 is at  -7.163406 -0.678293  0.323527
      ESP Fit Center   83 is at  -7.035574 -1.092715  0.323527
      ESP Fit Center   84 is at  -6.791268 -1.451047  0.323527
      ESP Fit Center   85 is at  -6.452195 -1.721448  0.323527
      ESP Fit Center   86 is at  -6.440627  0.486548 -0.024413
      ESP Fit Center   87 is at  -6.734740  0.163921 -0.024413
      ESP Fit Center   88 is at  -6.892446 -0.243165 -0.024413
      ESP Fit Center   89 is at  -6.892446 -0.679731 -0.024413
      ESP Fit Center   90 is at  -6.734740 -1.086818 -0.024413
      ESP Fit Center   91 is at  -6.440627 -1.409444 -0.024413
      ESP Fit Center   92 is at  -6.049829 -1.604039 -0.024413
      ESP Fit Center   93 is at  -6.144734  0.266013 -0.291396
      ESP Fit Center   94 is at  -6.452195 -0.041448 -0.291396
      ESP Fit Center   95 is at  -6.564734 -0.461448 -0.291396
      ESP Fit Center   96 is at  -6.452195 -0.881448 -0.291396
      ESP Fit Center   97 is at  -6.144734 -1.188909 -0.291396
      ESP Fit Center   98 is at  -6.159550 -0.461448 -0.459229
      ESP Fit Center   99 is at  -5.942142 -0.838010 -0.459229
      ESP Fit Center  100 is at  -5.389996 -1.142434  3.269146
      ESP Fit Center  101 is at  -5.095846 -1.436584  3.269146
      ESP Fit Center  102 is at  -4.694028 -1.544251  3.269146
      ESP Fit Center  103 is at  -5.840860 -0.526236  3.075085
      ESP Fit Center  104 is at  -5.840860 -0.954996  3.075085
      ESP Fit Center  105 is at  -5.685974 -1.354803  3.075085
      ESP Fit Center  106 is at  -5.397120 -1.671661  3.075085
      ESP Fit Center  107 is at  -5.943226  0.062195  2.813923
      ESP Fit Center  108 is at  -6.118802 -0.322264  2.813923
      ESP Fit Center  109 is at  -6.178952 -0.740616  2.813923
      ESP Fit Center  110 is at  -6.118802 -1.158967  2.813923
      ESP Fit Center  111 is at  -5.943226 -1.543427  2.813923
      ESP Fit Center  112 is at  -3.444830 -1.543427  2.813923
      ESP Fit Center  113 is at  -6.240110 -1.552063  2.495696
      ESP Fit Center  114 is at  -6.000992 -1.898485  2.495696
      ESP Fit Center  115 is at  -3.147945 -1.552063  2.495696
      ESP Fit Center  116 is at  -6.356457 -1.740866  2.132634
      ESP Fit Center  117 is at  -2.799240 -1.157690  2.132634
      ESP Fit Center  118 is at  -5.210284  1.253283  1.738689
      ESP Fit Center  119 is at  -4.694028  1.359384  1.328999
      ESP Fit Center  120 is at  -5.103718  1.319033  1.328999
      ESP Fit Center  121 is at  -5.497663  1.199531  1.328999
      ESP Fit Center  122 is at  -6.256803 -2.082215  0.919309
      ESP Fit Center  123 is at  -6.102566 -2.074854  0.525364
      ESP Fit Center  124 is at  -6.000992 -1.898485  0.162301
      ESP Fit Center  125 is at  -5.685918 -2.177617  0.162301
      ESP Fit Center  126 is at  -5.943226 -1.543427 -0.155925
      ESP Fit Center  127 is at  -5.666446 -1.862847 -0.155925
      ESP Fit Center  128 is at  -5.310888 -2.091351 -0.155925
      ESP Fit Center  129 is at  -4.905355 -2.210426 -0.155925
      ESP Fit Center  130 is at  -5.685974 -1.354803 -0.417087
      ESP Fit Center  131 is at  -5.397120 -1.671661 -0.417087
      ESP Fit Center  132 is at  -4.627716 -1.808618  3.180809
      ESP Fit Center  133 is at  -4.192900 -1.808618  3.123564
      ESP Fit Center  134 is at  -5.062532 -1.808618  3.123564
      ESP Fit Center  135 is at  -4.845124 -2.185180  3.123564
      ESP Fit Center  136 is at  -4.410308 -2.185180  3.123564
      ESP Fit Center  137 is at  -3.787716 -1.808618  2.955732
      ESP Fit Center  138 is at  -5.355177 -2.228618  2.955732
      ESP Fit Center  139 is at  -5.047716 -2.536079  2.955732
      ESP Fit Center  140 is at  -4.627716 -2.648618  2.955732
      ESP Fit Center  141 is at  -4.207716 -2.536079  2.955732
      ESP Fit Center  142 is at  -3.900255 -2.228618  2.955732
      ESP Fit Center  143 is at  -3.439776 -1.808618  2.688748
      ESP Fit Center  144 is at  -5.795428 -2.026901  2.688748
      ESP Fit Center  145 is at  -5.637722 -2.433987  2.688748
      ESP Fit Center  146 is at  -5.343609 -2.756614  2.688748
      ESP Fit Center  147 is at  -4.952811 -2.951209  2.688748
      ESP Fit Center  148 is at  -4.518107 -2.991490  2.688748
      ESP Fit Center  149 is at  -4.098206 -2.872018  2.688748
      ESP Fit Center  150 is at  -3.749818 -2.608928  2.688748
      ESP Fit Center  151 is at  -3.519995 -2.237751  2.688748
      ESP Fit Center  152 is at  -3.172793 -1.808618  2.340809
      ESP Fit Center  153 is at  -6.066388 -2.025463  2.340809
      ESP Fit Center  154 is at  -5.938556 -2.439885  2.340809
      ESP Fit Center  155 is at  -5.694250 -2.798217  2.340809
      ESP Fit Center  156 is at  -5.355177 -3.068618  2.340809
      ESP Fit Center  157 is at  -4.951467 -3.227063  2.340809
      ESP Fit Center  158 is at  -4.518989 -3.259472  2.340809
      ESP Fit Center  159 is at  -4.096173 -3.162967  2.340809
      ESP Fit Center  160 is at  -3.720586 -2.946122  2.340809
      ESP Fit Center  161 is at  -3.425602 -2.628205  2.340809
      ESP Fit Center  162 is at  -3.237431 -2.237464  2.340809
      ESP Fit Center  163 is at  -6.195177 -2.228618  1.935625
      ESP Fit Center  164 is at  -6.033063 -2.619996  1.935625
      ESP Fit Center  165 is at  -5.775177 -2.956079  1.935625
      ESP Fit Center  166 is at  -5.439094 -3.213965  1.935625
      ESP Fit Center  167 is at  -5.047716 -3.376079  1.935625
      ESP Fit Center  168 is at  -4.627716 -3.431373  1.935625
      ESP Fit Center  169 is at  -4.207716 -3.376079  1.935625
      ESP Fit Center  170 is at  -3.816338 -3.213965  1.935625
      ESP Fit Center  171 is at  -3.480255 -2.956079  1.935625
      ESP Fit Center  172 is at  -3.222368 -2.619996  1.935625
      ESP Fit Center  173 is at  -6.189740 -2.427067  1.500809
      ESP Fit Center  174 is at  -5.986864 -2.796097  1.500809
      ESP Fit Center  175 is at  -5.698588 -3.103080  1.500809
      ESP Fit Center  176 is at  -5.343025 -3.328727  1.500809
      ESP Fit Center  177 is at  -4.942516 -3.458861  1.500809
      ESP Fit Center  178 is at  -4.522228 -3.485303  1.500809
      ESP Fit Center  179 is at  -4.108567 -3.406393  1.500809
      ESP Fit Center  180 is at  -3.727527 -3.227089  1.500809
      ESP Fit Center  181 is at  -3.403049 -2.958657  1.500809
      ESP Fit Center  182 is at  -6.195177 -2.228618  1.065993
      ESP Fit Center  183 is at  -6.033063 -2.619996  1.065993
      ESP Fit Center  184 is at  -5.775177 -2.956079  1.065993
      ESP Fit Center  185 is at  -5.439094 -3.213965  1.065993
      ESP Fit Center  186 is at  -5.047716 -3.376079  1.065993
      ESP Fit Center  187 is at  -4.627716 -3.431373  1.065993
      ESP Fit Center  188 is at  -4.207716 -3.376079  1.065993
      ESP Fit Center  189 is at  -3.816338 -3.213965  1.065993
      ESP Fit Center  190 is at  -5.938556 -2.439885  0.660809
      ESP Fit Center  191 is at  -5.694250 -2.798217  0.660809
      ESP Fit Center  192 is at  -5.355177 -3.068618  0.660809
      ESP Fit Center  193 is at  -4.951467 -3.227063  0.660809
      ESP Fit Center  194 is at  -4.518989 -3.259472  0.660809
      ESP Fit Center  195 is at  -4.096173 -3.162967  0.660809
      ESP Fit Center  196 is at  -3.720586 -2.946122  0.660809
      ESP Fit Center  197 is at  -5.637722 -2.433987  0.312869
      ESP Fit Center  198 is at  -5.343609 -2.756614  0.312869
      ESP Fit Center  199 is at  -4.952811 -2.951209  0.312869
      ESP Fit Center  200 is at  -4.518107 -2.991490  0.312869
      ESP Fit Center  201 is at  -4.098206 -2.872018  0.312869
      ESP Fit Center  202 is at  -5.047716 -2.536079  0.045886
      ESP Fit Center  203 is at  -4.627716 -2.648618  0.045886
      ESP Fit Center  204 is at  -4.341168 -0.226735  3.897902
      ESP Fit Center  205 is at  -3.906352 -0.226735  3.840657
      ESP Fit Center  206 is at  -4.123760  0.149827  3.840657
      ESP Fit Center  207 is at  -4.558576  0.149827  3.840657
      ESP Fit Center  208 is at  -4.775984 -0.226735  3.840657
      ESP Fit Center  209 is at  -4.558576 -0.603297  3.840657
      ESP Fit Center  210 is at  -4.123760 -0.603297  3.840657
      ESP Fit Center  211 is at  -3.501168 -0.226735  3.672825
      ESP Fit Center  212 is at  -3.613707  0.193265  3.672825
      ESP Fit Center  213 is at  -3.921168  0.500726  3.672825
      ESP Fit Center  214 is at  -4.341168  0.613265  3.672825
      ESP Fit Center  215 is at  -4.761168  0.500726  3.672825
      ESP Fit Center  216 is at  -5.068629  0.193265  3.672825
      ESP Fit Center  217 is at  -5.181168 -0.226735  3.672825
      ESP Fit Center  218 is at  -5.068629 -0.646735  3.672825
      ESP Fit Center  219 is at  -4.761168 -0.954196  3.672825
      ESP Fit Center  220 is at  -4.341168 -1.066735  3.672825
      ESP Fit Center  221 is at  -3.921168 -0.954196  3.672825
      ESP Fit Center  222 is at  -3.613707 -0.646735  3.672825
      ESP Fit Center  223 is at  -3.153229 -0.226735  3.405841
      ESP Fit Center  224 is at  -3.233447  0.202398  3.405841
      ESP Fit Center  225 is at  -3.463270  0.573575  3.405841
      ESP Fit Center  226 is at  -3.811658  0.836665  3.405841
      ESP Fit Center  227 is at  -4.231559  0.956137  3.405841
      ESP Fit Center  228 is at  -4.666263  0.915856  3.405841
      ESP Fit Center  229 is at  -5.057061  0.721261  3.405841
      ESP Fit Center  230 is at  -5.351174  0.398635  3.405841
      ESP Fit Center  231 is at  -5.508880 -0.008452  3.405841
      ESP Fit Center  232 is at  -5.508880 -0.445018  3.405841
      ESP Fit Center  233 is at  -5.351174 -0.852104  3.405841
      ESP Fit Center  234 is at  -5.057061 -1.174731  3.405841
      ESP Fit Center  235 is at  -4.666263 -1.369326  3.405841
      ESP Fit Center  236 is at  -4.231559 -1.409607  3.405841
      ESP Fit Center  237 is at  -3.811658 -1.290135  3.405841
      ESP Fit Center  238 is at  -3.463270 -1.027045  3.405841
      ESP Fit Center  239 is at  -3.233447 -0.655868  3.405841
      ESP Fit Center  240 is at  -2.886245 -0.226735  3.057902
      ESP Fit Center  241 is at  -2.950883  0.202111  3.057902
      ESP Fit Center  242 is at  -3.139054  0.592852  3.057902
      ESP Fit Center  243 is at  -3.434038  0.910769  3.057902
      ESP Fit Center  244 is at  -3.809625  1.127614  3.057902
      ESP Fit Center  245 is at  -4.232441  1.224119  3.057902
      ESP Fit Center  246 is at  -4.664919  1.191710  3.057902
      ESP Fit Center  247 is at  -5.068629  1.033265  3.057902
      ESP Fit Center  248 is at  -5.407702  0.762864  3.057902
      ESP Fit Center  249 is at  -5.652008  0.404532  3.057902
      ESP Fit Center  250 is at  -5.779840 -0.009890  3.057902
      ESP Fit Center  251 is at  -3.809625 -1.581084  3.057902
      ESP Fit Center  252 is at  -3.434038 -1.364239  3.057902
      ESP Fit Center  253 is at  -3.139054 -1.046322  3.057902
      ESP Fit Center  254 is at  -2.950883 -0.655581  3.057902
      ESP Fit Center  255 is at  -2.718413 -0.226735  2.652718
      ESP Fit Center  256 is at  -2.773707  0.193265  2.652718
      ESP Fit Center  257 is at  -2.935821  0.584643  2.652718
      ESP Fit Center  258 is at  -3.193707  0.920726  2.652718
      ESP Fit Center  259 is at  -3.529790  1.178612  2.652718
      ESP Fit Center  260 is at  -3.921168  1.340726  2.652718
      ESP Fit Center  261 is at  -4.341168  1.396020  2.652718
      ESP Fit Center  262 is at  -4.761168  1.340726  2.652718
      ESP Fit Center  263 is at  -5.152546  1.178612  2.652718
      ESP Fit Center  264 is at  -5.488629  0.920726  2.652718
      ESP Fit Center  265 is at  -5.746515  0.584643  2.652718
      ESP Fit Center  266 is at  -2.935821 -1.038113  2.652718
      ESP Fit Center  267 is at  -2.773707 -0.646735  2.652718
      ESP Fit Center  268 is at  -2.661168 -0.226735  2.217902
      ESP Fit Center  269 is at  -2.713948  0.191064  2.217902
      ESP Fit Center  270 is at  -2.868973  0.582611  2.217902
      ESP Fit Center  271 is at  -3.116501  0.923304  2.217902
      ESP Fit Center  272 is at  -3.440979  1.191736  2.217902
      ESP Fit Center  273 is at  -3.822019  1.371040  2.217902
      ESP Fit Center  274 is at  -4.235680  1.449950  2.217902
      ESP Fit Center  275 is at  -4.655969  1.423508  2.217902
      ESP Fit Center  276 is at  -5.056477  1.293374  2.217902
      ESP Fit Center  277 is at  -5.412040  1.067727  2.217902
      ESP Fit Center  278 is at  -2.713948 -0.644534  2.217902
      ESP Fit Center  279 is at  -3.193707  0.920726  1.783086
      ESP Fit Center  280 is at  -3.529790  1.178612  1.783086
      ESP Fit Center  281 is at  -3.921168  1.340726  1.783086
      ESP Fit Center  282 is at  -4.341168  1.396020  1.783086
      ESP Fit Center  283 is at  -4.761168  1.340726  1.783086
      ESP Fit Center  284 is at  -2.445324  0.131047  1.627865
      ESP Fit Center  285 is at  -2.620900  0.515506  1.627865
      ESP Fit Center  286 is at  -2.897679  0.834926  1.627865
      ESP Fit Center  287 is at  -3.253238  1.063430  1.627865
      ESP Fit Center  288 is at  -2.324015  0.524142  1.309638
      ESP Fit Center  289 is at  -2.563134  0.870564  1.309638
      ESP Fit Center  290 is at  -2.878208  1.149696  1.309638
      ESP Fit Center  291 is at  -3.250927  1.345314  1.309638
      ESP Fit Center  292 is at  -3.659630  1.446050  1.309638
      ESP Fit Center  293 is at  -4.080565  1.446050  1.309638
      ESP Fit Center  294 is at  -2.614073  1.191401  0.946576
      ESP Fit Center  295 is at  -2.961317  1.426838  0.946576
      ESP Fit Center  296 is at  -4.777155 -2.136467 -0.266749
      ESP Fit Center  297 is at  -5.798872 -0.497072 -0.660694
      ESP Fit Center  298 is at  -5.708684 -0.906797 -0.660694
      ESP Fit Center  299 is at  -5.532527 -1.287555 -0.660694
      ESP Fit Center  300 is at  -5.278636 -1.621543 -0.660694
      ESP Fit Center  301 is at  -4.958883 -1.893143 -0.660694
      ESP Fit Center  302 is at  -4.588220 -2.089656 -0.660694
      ESP Fit Center  303 is at  -5.565446 -0.705171 -1.023757
      ESP Fit Center  304 is at  -5.416180 -1.098752 -1.023757
      ESP Fit Center  305 is at  -5.177062 -1.445174 -1.023757
      ESP Fit Center  306 is at  -4.861988 -1.724306 -1.023757
      ESP Fit Center  307 is at  -4.489269 -1.919924 -1.023757
      ESP Fit Center  308 is at  -5.294872 -0.705656 -1.341983
      ESP Fit Center  309 is at  -5.119296 -1.090116 -1.341983
      ESP Fit Center  310 is at  -4.842517 -1.409536 -1.341983
      ESP Fit Center  311 is at  -4.486958 -1.638040 -1.341983
      ESP Fit Center  312 is at  -4.862044 -0.901492 -1.603145
      ESP Fit Center  313 is at  -4.573190 -1.218350 -1.603145
      ESP Fit Center  314 is at  -4.271916 -0.983273 -1.797206
      ESP Fit Center  315 is at  -4.171915  1.474851  1.283941
      ESP Fit Center  316 is at  -4.570517  1.368046  1.283941
      ESP Fit Center  317 is at  -3.658398  1.708928  1.079065
      ESP Fit Center  318 is at  -4.065616  1.824792  1.079065
      ESP Fit Center  319 is at  -4.487191  1.785727  1.079065
      ESP Fit Center  320 is at  -4.866186  1.597010  1.079065
      ESP Fit Center  321 is at  -3.218068  1.778445  0.804888
      ESP Fit Center  322 is at  -3.566836  2.002584  0.804888
      ESP Fit Center  323 is at  -3.964624  2.119385  0.804888
      ESP Fit Center  324 is at  -4.379206  2.119385  0.804888
      ESP Fit Center  325 is at  -4.776993  2.002584  0.804888
      ESP Fit Center  326 is at  -5.125761  1.778445  0.804888
      ESP Fit Center  327 is at  -5.397254  1.465125  0.804888
      ESP Fit Center  328 is at  -3.262397  2.110818  0.473392
      ESP Fit Center  329 is at  -3.647386  2.291980  0.473392
      ESP Fit Center  330 is at  -4.065334  2.371707  0.473392
      ESP Fit Center  331 is at  -4.489978  2.344991  0.473392
      ESP Fit Center  332 is at  -4.894637  2.213509  0.473392
      ESP Fit Center  333 is at  -5.253885  1.985524  0.473392
      ESP Fit Center  334 is at  -5.545148  1.675359  0.473392
      ESP Fit Center  335 is at  -5.750127  1.302505  0.473392
      ESP Fit Center  336 is at  -3.363125  2.357117  0.099065
      ESP Fit Center  337 is at  -3.757120  2.494982  0.099065
      ESP Fit Center  338 is at  -4.171915  2.541718  0.099065
      ESP Fit Center  339 is at  -4.586710  2.494982  0.099065
      ESP Fit Center  340 is at  -4.980705  2.357117  0.099065
      ESP Fit Center  341 is at  -5.334144  2.135036  0.099065
      ESP Fit Center  342 is at  -5.629304  1.839876  0.099065
      ESP Fit Center  343 is at  -5.851385  1.486437  0.099065
      ESP Fit Center  344 is at  -5.989250  1.092442  0.099065
      ESP Fit Center  345 is at  -3.650432  2.555859 -0.301732
      ESP Fit Center  346 is at  -4.066384  2.624051 -0.301732
      ESP Fit Center  347 is at  -4.487271  2.601231 -0.301732
      ESP Fit Center  348 is at  -4.893412  2.488467 -0.301732
      ESP Fit Center  349 is at  -5.265816  2.291030 -0.301732
      ESP Fit Center  350 is at  -5.587071  2.018154 -0.301732
      ESP Fit Center  351 is at  -5.842155  1.682597 -0.301732
      ESP Fit Center  352 is at  -6.019140  1.300050 -0.301732
      ESP Fit Center  353 is at  -6.109751  0.888399 -0.301732
      ESP Fit Center  354 is at  -6.109751  0.466895 -0.301732
      ESP Fit Center  355 is at  -3.650432  2.555859 -0.711484
      ESP Fit Center  356 is at  -4.066384  2.624051 -0.711484
      ESP Fit Center  357 is at  -4.487271  2.601231 -0.711484
      ESP Fit Center  358 is at  -4.893412  2.488467 -0.711484
      ESP Fit Center  359 is at  -5.265816  2.291030 -0.711484
      ESP Fit Center  360 is at  -5.587071  2.018154 -0.711484
      ESP Fit Center  361 is at  -5.842155  1.682597 -0.711484
      ESP Fit Center  362 is at  -6.019140  1.300050 -0.711484
      ESP Fit Center  363 is at  -6.109751  0.888399 -0.711484
      ESP Fit Center  364 is at  -6.109751  0.466895 -0.711484
      ESP Fit Center  365 is at  -6.019140  0.055244 -0.711484
      ESP Fit Center  366 is at  -5.842155 -0.327303 -0.711484
      ESP Fit Center  367 is at  -3.363125  2.357117 -1.112281
      ESP Fit Center  368 is at  -3.757120  2.494982 -1.112281
      ESP Fit Center  369 is at  -4.171915  2.541718 -1.112281
      ESP Fit Center  370 is at  -4.586710  2.494982 -1.112281
      ESP Fit Center  371 is at  -4.980705  2.357117 -1.112281
      ESP Fit Center  372 is at  -5.334144  2.135036 -1.112281
      ESP Fit Center  373 is at  -5.629304  1.839876 -1.112281
      ESP Fit Center  374 is at  -5.851385  1.486437 -1.112281
      ESP Fit Center  375 is at  -5.989250  1.092442 -1.112281
      ESP Fit Center  376 is at  -6.035986  0.677647 -1.112281
      ESP Fit Center  377 is at  -5.989250  0.262852 -1.112281
      ESP Fit Center  378 is at  -5.851385 -0.131143 -1.112281
      ESP Fit Center  379 is at  -5.629304 -0.484582 -1.112281
      ESP Fit Center  380 is at  -3.262397  2.110818 -1.486608
      ESP Fit Center  381 is at  -3.647386  2.291980 -1.486608
      ESP Fit Center  382 is at  -4.065334  2.371707 -1.486608
      ESP Fit Center  383 is at  -4.489978  2.344991 -1.486608
      ESP Fit Center  384 is at  -4.894637  2.213509 -1.486608
      ESP Fit Center  385 is at  -5.253885  1.985524 -1.486608
      ESP Fit Center  386 is at  -5.545148  1.675359 -1.486608
      ESP Fit Center  387 is at  -5.750127  1.302505 -1.486608
      ESP Fit Center  388 is at  -5.855940  0.890389 -1.486608
      ESP Fit Center  389 is at  -5.855940  0.464905 -1.486608
      ESP Fit Center  390 is at  -5.750127  0.052789 -1.486608
      ESP Fit Center  391 is at  -5.545148 -0.320065 -1.486608
      ESP Fit Center  392 is at  -5.253885 -0.630230 -1.486608
      ESP Fit Center  393 is at  -2.946575  1.465125 -1.818104
      ESP Fit Center  394 is at  -3.218068  1.778445 -1.818104
      ESP Fit Center  395 is at  -3.566836  2.002584 -1.818104
      ESP Fit Center  396 is at  -3.964624  2.119385 -1.818104
      ESP Fit Center  397 is at  -4.379206  2.119385 -1.818104
      ESP Fit Center  398 is at  -4.776993  2.002584 -1.818104
      ESP Fit Center  399 is at  -5.125761  1.778445 -1.818104
      ESP Fit Center  400 is at  -5.397254  1.465125 -1.818104
      ESP Fit Center  401 is at  -5.569478  1.088008 -1.818104
      ESP Fit Center  402 is at  -5.628479  0.677647 -1.818104
      ESP Fit Center  403 is at  -5.569478  0.267286 -1.818104
      ESP Fit Center  404 is at  -5.397254 -0.109831 -1.818104
      ESP Fit Center  405 is at  -5.125761 -0.423150 -1.818104
      ESP Fit Center  406 is at  -4.776993 -0.647290 -1.818104
      ESP Fit Center  407 is at  -3.320533  1.453784 -2.092281
      ESP Fit Center  408 is at  -3.658398  1.708928 -2.092281
      ESP Fit Center  409 is at  -4.065616  1.824792 -2.092281
      ESP Fit Center  410 is at  -4.487191  1.785727 -2.092281
      ESP Fit Center  411 is at  -4.866186  1.597010 -2.092281
      ESP Fit Center  412 is at  -5.151415  1.284128 -2.092281
      ESP Fit Center  413 is at  -5.304358  0.889337 -2.092281
      ESP Fit Center  414 is at  -5.304358  0.465957 -2.092281
      ESP Fit Center  415 is at  -5.151415  0.071166 -2.092281
      ESP Fit Center  416 is at  -4.866186 -0.241716 -2.092281
      ESP Fit Center  417 is at  -4.487191 -0.430433 -2.092281
      ESP Fit Center  418 is at  -4.065616 -0.469498 -2.092281
      ESP Fit Center  419 is at  -3.481516  1.076249 -2.297157
      ESP Fit Center  420 is at  -3.773313  1.368046 -2.297157
      ESP Fit Center  421 is at  -4.171915  1.474851 -2.297157
      ESP Fit Center  422 is at  -4.570517  1.368046 -2.297157
      ESP Fit Center  423 is at  -4.862314  1.076249 -2.297157
      ESP Fit Center  424 is at  -4.969119  0.677647 -2.297157
      ESP Fit Center  425 is at  -4.862314  0.279045 -2.297157
      ESP Fit Center  426 is at  -4.570517 -0.012752 -2.297157
      ESP Fit Center  427 is at  -4.171915 -0.119557 -2.297157
      ESP Fit Center  428 is at  -3.764408  0.677647 -2.423777
      ESP Fit Center  429 is at  -3.968161  1.030558 -2.423777
      ESP Fit Center  430 is at  -4.375668  1.030558 -2.423777
      ESP Fit Center  431 is at  -4.579422  0.677647 -2.423777
      ESP Fit Center  432 is at  -4.375668  0.324736 -2.423777
      ESP Fit Center  433 is at  -3.968161  0.324736 -2.423777
      ESP Fit Center  434 is at  -4.171915  0.677647 -2.466608
      ESP Fit Center  435 is at   2.360476  2.165793  2.408633
      ESP Fit Center  436 is at   2.795292  2.165793  2.351388
      ESP Fit Center  437 is at   2.577884  2.542355  2.351388
      ESP Fit Center  438 is at   2.143068  2.542355  2.351388
      ESP Fit Center  439 is at   1.925660  2.165793  2.351388
      ESP Fit Center  440 is at   2.577884  1.789231  2.351388
      ESP Fit Center  441 is at   3.200476  2.165793  2.183556
      ESP Fit Center  442 is at   3.087937  2.585793  2.183556
      ESP Fit Center  443 is at   2.780476  2.893255  2.183556
      ESP Fit Center  444 is at   2.360476  3.005793  2.183556
      ESP Fit Center  445 is at   1.940476  2.893255  2.183556
      ESP Fit Center  446 is at   3.548415  2.165793  1.916572
      ESP Fit Center  447 is at   3.468196  2.594926  1.916572
      ESP Fit Center  448 is at   3.238374  2.966103  1.916572
      ESP Fit Center  449 is at   2.889986  3.229193  1.916572
      ESP Fit Center  450 is at   2.470085  3.348665  1.916572
      ESP Fit Center  451 is at   2.035381  3.308384  1.916572
      ESP Fit Center  452 is at   1.644583  3.113789  1.916572
      ESP Fit Center  453 is at   3.750761  2.594639  1.568633
      ESP Fit Center  454 is at   3.562590  2.985380  1.568633
      ESP Fit Center  455 is at   3.267605  3.303298  1.568633
      ESP Fit Center  456 is at   2.892019  3.520143  1.568633
      ESP Fit Center  457 is at   2.469203  3.616648  1.568633
      ESP Fit Center  458 is at   2.036725  3.584238  1.568633
      ESP Fit Center  459 is at   1.633015  3.425793  1.568633
      ESP Fit Center  460 is at   3.927937  2.585793  1.163449
      ESP Fit Center  461 is at   3.765823  2.977171  1.163449
      ESP Fit Center  462 is at   3.507937  3.313255  1.163449
      ESP Fit Center  463 is at   3.171854  3.571141  1.163449
      ESP Fit Center  464 is at   2.780476  3.733255  1.163449
      ESP Fit Center  465 is at   2.360476  3.788549  1.163449
      ESP Fit Center  466 is at   1.940476  3.733255  1.163449
      ESP Fit Center  467 is at   3.987696  2.583592  0.728633
      ESP Fit Center  468 is at   3.832671  2.975139  0.728633
      ESP Fit Center  469 is at   3.585143  3.315832  0.728633
      ESP Fit Center  470 is at   3.260665  3.584264  0.728633
      ESP Fit Center  471 is at   2.879625  3.763568  0.728633
      ESP Fit Center  472 is at   2.465964  3.842478  0.728633
      ESP Fit Center  473 is at   2.045675  3.816036  0.728633
      ESP Fit Center  474 is at   3.765823  2.977171  0.293817
      ESP Fit Center  475 is at   3.507937  3.313255  0.293817
      ESP Fit Center  476 is at   3.171854  3.571141  0.293817
      ESP Fit Center  477 is at   2.780476  3.733255  0.293817
      ESP Fit Center  478 is at   2.360476  3.788549  0.293817
      ESP Fit Center  479 is at   1.940476  3.733255  0.293817
      ESP Fit Center  480 is at   3.562590  2.985380 -0.111367
      ESP Fit Center  481 is at   3.267605  3.303298 -0.111367
      ESP Fit Center  482 is at   2.892019  3.520143 -0.111367
      ESP Fit Center  483 is at   2.469203  3.616648 -0.111367
      ESP Fit Center  484 is at   3.238374  2.966103 -0.459307
      ESP Fit Center  485 is at   2.889986  3.229193 -0.459307
      ESP Fit Center  486 is at   2.470085  3.348665 -0.459307
      ESP Fit Center  487 is at   3.087937  2.585793 -0.726290
      ESP Fit Center  488 is at   0.142842  3.220857  2.171645
      ESP Fit Center  489 is at   0.577658  3.220857  2.114400
      ESP Fit Center  490 is at   0.360250  3.597419  2.114400
      ESP Fit Center  491 is at  -0.074566  3.597419  2.114400
      ESP Fit Center  492 is at  -0.291974  3.220857  2.114400
      ESP Fit Center  493 is at   0.982842  3.220857  1.946568
      ESP Fit Center  494 is at   0.870303  3.640857  1.946568
      ESP Fit Center  495 is at   0.562842  3.948318  1.946568
      ESP Fit Center  496 is at   0.142842  4.060857  1.946568
      ESP Fit Center  497 is at  -0.277158  3.948318  1.946568
      ESP Fit Center  498 is at  -0.584619  3.640857  1.946568
      ESP Fit Center  499 is at  -0.697158  3.220857  1.946568
      ESP Fit Center  500 is at   1.250562  3.649990  1.679584
      ESP Fit Center  501 is at   1.020740  4.021167  1.679584
      ESP Fit Center  502 is at   0.672352  4.284257  1.679584
      ESP Fit Center  503 is at   0.252451  4.403729  1.679584
[...]
   D33       -3.13312   0.00000   0.00000   0.00001   0.00001  -3.13311
   D34        0.01606   0.00000   0.00000   0.00000   0.00000   0.01606
   D35        0.82275   0.00000   0.00000   0.00000   0.00000   0.82275
   D36        2.89194   0.00000   0.00000   0.00000   0.00000   2.89194
   D37       -1.27462   0.00000   0.00000   0.00001   0.00001  -1.27461
   D38       -2.32654   0.00000   0.00000   0.00001   0.00001  -2.32653
   D39       -0.25735   0.00000   0.00000   0.00001   0.00001  -0.25734
   D40        1.85928   0.00000   0.00000   0.00002   0.00002   1.85930
   D41        1.64007   0.00000   0.00000  -0.00002  -0.00002   1.64005
   D42       -1.27710   0.00000   0.00000  -0.00001  -0.00001  -1.27711
   D43       -0.48908   0.00000   0.00000  -0.00001  -0.00001  -0.48909
   D44        2.87694   0.00000   0.00000   0.00000   0.00000   2.87694
   D45       -2.51075   0.00000   0.00000  -0.00001  -0.00001  -2.51076
   D46        0.85527   0.00000   0.00000   0.00000   0.00000   0.85527
         Item               Value     Threshold  Converged?
 Maximum Force            0.000002     0.000450     YES
 RMS     Force            0.000000     0.000300     YES
 Maximum Displacement     0.000060     0.001800     YES
 RMS     Displacement     0.000016     0.001200     YES
 Predicted change in Energy=-1.510734D-10
 Optimization completed.
    -- Stationary point found.
                           ----------------------------
                           !   Optimized Parameters   !
                           ! (Angstroms and Degrees)  !
 --------------------------                            --------------------------
 ! Name  Definition              Value          Derivative Info.                !
 --------------------------------------------------------------------------------
 ! R1    R(1,2)                  1.0806         -DE/DX =    0.0                 !
 ! R2    R(2,3)                  1.0838         -DE/DX =    0.0                 !
 ! R3    R(2,4)                  1.0857         -DE/DX =    0.0                 !
 ! R4    R(2,5)                  1.5136         -DE/DX =    0.0                 !
 ! R5    R(5,6)                  1.2017         -DE/DX =    0.0                 !
 ! R6    R(5,21)                 1.3551         -DE/DX =    0.0                 !
 ! R7    R(7,9)                  1.073          -DE/DX =    0.0                 !
 ! R8    R(8,10)                 1.0751         -DE/DX =    0.0                 !
 ! R9    R(9,10)                 1.3882         -DE/DX =    0.0                 !
 ! R10   R(9,12)                 1.3788         -DE/DX =    0.0                 !
 ! R11   R(10,13)                1.3819         -DE/DX =    0.0                 !
 ! R12   R(11,12)                1.9008         -DE/DX =    0.0                 !
 ! R13   R(12,15)                1.3852         -DE/DX =    0.0                 !
 ! R14   R(13,14)                1.0747         -DE/DX =    0.0                 !
 ! R15   R(13,16)                1.3929         -DE/DX =    0.0                 !
 ! R16   R(15,16)                1.3862         -DE/DX =    0.0                 !
 ! R17   R(15,17)                1.0743         -DE/DX =    0.0                 !
 ! R18   R(16,19)                1.5171         -DE/DX =    0.0                 !
 ! R19   R(18,19)                1.0791         -DE/DX =    0.0                 !
 ! R20   R(19,20)                1.0834         -DE/DX =    0.0                 !
 ! R21   R(19,21)                1.4508         -DE/DX =    0.0                 !
 ! R22   R(21,22)                0.9945         -DE/DX =    0.0                 !
 ! A1    A(1,2,3)              109.7082         -DE/DX =    0.0                 !
 ! A2    A(1,2,4)              108.2461         -DE/DX =    0.0                 !
 ! A3    A(1,2,5)              108.7748         -DE/DX =    0.0                 !
 ! A4    A(3,2,4)              108.4668         -DE/DX =    0.0                 !
 ! A5    A(3,2,5)              112.7087         -DE/DX =    0.0                 !
 ! A6    A(4,2,5)              108.8375         -DE/DX =    0.0                 !
 ! A7    A(2,5,6)              121.8235         -DE/DX =    0.0                 !
 ! A8    A(2,5,21)             115.3333         -DE/DX =    0.0                 !
 ! A9    A(6,5,21)             122.8386         -DE/DX =    0.0                 !
 ! A10   A(7,9,10)             120.9134         -DE/DX =    0.0                 !
 ! A11   A(7,9,12)             120.4347         -DE/DX =    0.0                 !
 ! A12   A(10,9,12)            118.6517         -DE/DX =    0.0                 !
 ! A13   A(8,10,9)             119.3973         -DE/DX =    0.0                 !
 ! A14   A(8,10,13)            119.9369         -DE/DX =    0.0                 !
 ! A15   A(9,10,13)            120.6653         -DE/DX =    0.0                 !
 ! A16   A(9,12,11)            119.5013         -DE/DX =    0.0                 !
 ! A17   A(9,12,15)            121.3458         -DE/DX =    0.0                 !
 ! A18   A(11,12,15)           119.1529         -DE/DX =    0.0                 !
 ! A19   A(10,13,14)           120.2852         -DE/DX =    0.0                 !
 ! A20   A(10,13,16)           120.3329         -DE/DX =    0.0                 !
 ! A21   A(14,13,16)           119.3818         -DE/DX =    0.0                 !
 ! A22   A(12,15,16)           119.8954         -DE/DX =    0.0                 !
 ! A23   A(12,15,17)           119.5574         -DE/DX =    0.0                 !
 ! A24   A(16,15,17)           120.5468         -DE/DX =    0.0                 !
 ! A25   A(13,16,15)           119.1085         -DE/DX =    0.0                 !
 ! A26   A(13,16,19)           120.4817         -DE/DX =    0.0                 !
 ! A27   A(15,16,19)           120.4084         -DE/DX =    0.0                 !
 ! A28   A(16,19,18)           110.2701         -DE/DX =    0.0                 !
 ! A29   A(16,19,20)           109.7752         -DE/DX =    0.0                 !
 ! A30   A(16,19,21)           113.6739         -DE/DX =    0.0                 !
 ! A31   A(18,19,20)           107.7433         -DE/DX =    0.0                 !
 ! A32   A(18,19,21)           107.0175         -DE/DX =    0.0                 !
 ! A33   A(20,19,21)           108.153          -DE/DX =    0.0                 !
 ! A34   A(5,21,19)            122.7264         -DE/DX =    0.0                 !
 ! A35   A(5,21,22)            118.3651         -DE/DX =    0.0                 !
 ! A36   A(19,21,22)           117.6849         -DE/DX =    0.0                 !
 ! D1    D(1,2,5,6)             29.5987         -DE/DX =    0.0                 !
 ! D2    D(1,2,5,21)          -151.1585         -DE/DX =    0.0                 !
 ! D3    D(3,2,5,6)            151.4942         -DE/DX =    0.0                 !
 ! D4    D(3,2,5,21)           -29.263          -DE/DX =    0.0                 !
 ! D5    D(4,2,5,6)            -88.1363         -DE/DX =    0.0                 !
 ! D6    D(4,2,5,21)            91.1066         -DE/DX =    0.0                 !
 ! D7    D(2,5,21,19)         -174.7228         -DE/DX =    0.0                 !
 ! D8    D(2,5,21,22)           -7.6645         -DE/DX =    0.0                 !
 ! D9    D(6,5,21,19)            4.5115         -DE/DX =    0.0                 !
 ! D10   D(6,5,21,22)          171.5698         -DE/DX =    0.0                 !
 ! D11   D(7,9,10,8)             0.1453         -DE/DX =    0.0                 !
 ! D12   D(7,9,10,13)          179.8744         -DE/DX =    0.0                 !
 ! D13   D(12,9,10,8)         -179.6547         -DE/DX =    0.0                 !
 ! D14   D(12,9,10,13)           0.0744         -DE/DX =    0.0                 !
 ! D15   D(7,9,12,11)            0.1247         -DE/DX =    0.0                 !
 ! D16   D(7,9,12,15)         -179.8616         -DE/DX =    0.0                 !
 ! D17   D(10,9,12,11)         179.9257         -DE/DX =    0.0                 !
 ! D18   D(10,9,12,15)          -0.0606         -DE/DX =    0.0                 !
 ! D19   D(8,10,13,14)          -0.1206         -DE/DX =    0.0                 !
 ! D20   D(8,10,13,16)         179.7908         -DE/DX =    0.0                 !
 ! D21   D(9,10,13,14)        -179.8482         -DE/DX =    0.0                 !
 ! D22   D(9,10,13,16)           0.0632         -DE/DX =    0.0                 !
 ! D23   D(9,12,15,16)          -0.0912         -DE/DX =    0.0                 !
 ! D24   D(9,12,15,17)         179.653          -DE/DX =    0.0                 !
 ! D25   D(11,12,15,16)        179.9224         -DE/DX =    0.0                 !
 ! D26   D(11,12,15,17)         -0.3334         -DE/DX =    0.0                 !
 ! D27   D(10,13,16,15)         -0.2138         -DE/DX =    0.0                 !
 ! D28   D(10,13,16,19)        179.351          -DE/DX =    0.0                 !
 ! D29   D(14,13,16,15)        179.6985         -DE/DX =    0.0                 !
 ! D30   D(14,13,16,19)         -0.7367         -DE/DX =    0.0                 !
 ! D31   D(12,15,16,13)          0.2268         -DE/DX =    0.0                 !
 ! D32   D(12,15,16,19)       -179.3383         -DE/DX =    0.0                 !
 ! D33   D(17,15,16,13)       -179.5148         -DE/DX =    0.0                 !
 ! D34   D(17,15,16,19)          0.92           -DE/DX =    0.0                 !
 ! D35   D(13,16,19,18)         47.1402         -DE/DX =    0.0                 !
 ! D36   D(13,16,19,20)        165.696          -DE/DX =    0.0                 !
 ! D37   D(13,16,19,21)        -73.0301         -DE/DX =    0.0                 !
 ! D38   D(15,16,19,18)       -133.3007         -DE/DX =    0.0                 !
 ! D39   D(15,16,19,20)        -14.7449         -DE/DX =    0.0                 !
 ! D40   D(15,16,19,21)        106.529          -DE/DX =    0.0                 !
 ! D41   D(16,19,21,5)          93.9691         -DE/DX =    0.0                 !
 ! D42   D(16,19,21,22)        -73.1722         -DE/DX =    0.0                 !
 ! D43   D(18,19,21,5)         -28.0221         -DE/DX =    0.0                 !
 ! D44   D(18,19,21,22)        164.8366         -DE/DX =    0.0                 !
 ! D45   D(20,19,21,5)        -143.8553         -DE/DX =    0.0                 !
 ! D46   D(20,19,21,22)         49.0034         -DE/DX =    0.0                 !
 --------------------------------------------------------------------------------
 GradGradGradGradGradGradGradGradGradGradGradGradGradGradGradGradGradGrad

                          Input orientation:                          
 ---------------------------------------------------------------------
 Center     Atomic      Atomic             Coordinates (Angstroms)
 Number     Number       Type             X           Y           Z
 ---------------------------------------------------------------------
      1          1           0        5.724734   -0.461448   -1.163527
      2          6           0        4.694028   -0.740616   -1.328999
      3          1           0        4.627716   -1.808618   -1.500809
      4          1           0        4.341168   -0.226735   -2.217902
      5          6           0        3.870098   -0.287305   -0.142941
      6          8           0        4.171915    0.677647    0.506608
      7          1           0       -2.360476    2.165793   -0.728633
      8          1           0       -0.142842    3.220857   -0.491645
      9          6           0       -1.526479    1.603838   -0.354351
     10          6           0       -0.275091    2.189315   -0.219109
     11         35           0       -3.383979   -0.543270   -0.166755
     12          6           0       -1.680436    0.282031    0.006509
     13          6           0        0.794871    1.461508    0.265911
     14          1           0        1.760457    1.921589    0.370402
     15          6           0       -0.617566   -0.460193    0.494428
     16          6           0        0.631793    0.125765    0.625583
     17          1           0       -0.771163   -1.486495    0.772236
     18          1           0        2.340463   -0.121600    1.898270
     19          6           0        1.807430   -0.680508    1.144585
     20          1           0        1.450869   -1.595388    1.602453
     21          7           0        2.769875   -1.034039    0.118116
     22          1           0        2.512013   -1.739433   -0.533807
 ---------------------------------------------------------------------
                    Distance matrix (angstroms):
                    1          2          3          4          5
     1  H    0.000000
     2  C    1.080588   0.000000
     3  H    1.769767   1.083764   0.000000
     4  H    1.755292   1.085694   1.760308   0.000000
     5  C    2.124052   1.513633   2.175358   2.128624   0.000000
     6  O    2.549144   2.377714   3.227846   2.875675   1.201724
     7  H    8.512470   7.653344   8.076325   7.270086   6.721665
     8  H    6.959831   6.307911   7.005159   5.913730   5.341581
     9  C    7.582893   6.718713   7.129750   6.422858   5.722251
    10  C    6.626943   5.874393   6.454746   5.580530   4.829290
    11  Br   9.163455   8.163575   8.219979   7.999081   7.258631
    12  C    7.533810   6.592661   6.814367   6.439454   5.581658
    13  C    5.481296   4.753579   5.339075   4.647119   3.561254
    14  H    4.873120   4.310584   5.063304   4.239656   3.097308
    15  C    6.555424   5.622860   5.771673   5.656879   4.535996
    16  C    5.429897   4.590508   4.922477   4.687123   3.353785
    17  H    6.855259   5.902528   5.866719   6.055068   4.880257
    18  H    4.576395   4.041994   4.430722   4.577854   2.556127
    19  C    4.551993   3.801931   4.027996   4.234626   2.463114
    20  H    5.215591   4.454450   4.446129   4.982183   3.257323
    21  N    3.271339   2.425408   2.583111   2.928768   1.355084
    22  H    3.514451   2.528073   2.327247   2.910368   2.026289
                    6          7          8          9         10
     6  O    0.000000
     7  H    6.812674   0.000000
     8  H    5.107010   2.467230   0.000000
     9  C    5.837018   1.073048   2.132616   0.000000
    10  C    4.752648   2.146858   1.075102   1.388181   0.000000
    11  Br   7.683462   2.949964   4.977868   2.845272   4.139438
    12  C    5.886988   2.133412   3.353960   1.378803   2.379838
    13  C    3.475169   3.382506   2.132723   2.407000   1.381943
    14  H    2.716813   4.271955   2.460441   3.380855   2.136037
    15  C    4.922800   3.380742   3.840291   2.409725   2.765197
    16  C    3.584856   3.866431   3.380511   2.793404   2.407111
    17  H    5.402600   4.256493   4.914402   3.374886   3.839327
    18  H    2.435105   5.850779   4.801095   4.796319   4.082248
    19  C    2.800427   5.383476   4.658482   4.310452   3.799005
    20  H    3.711018   5.840102   5.488295   4.788395   4.541035
    21  N    2.246444   6.105441   5.192289   5.063623   4.446971
    22  H    3.111272   6.247391   5.626234   5.245863   4.827219
                   11         12         13         14         15
    11  Br   0.000000
    12  C    1.900842   0.000000
    13  C    4.655010   2.754197   0.000000
    14  H    5.729685   3.828879   1.074686   0.000000
    15  C    2.845541   1.385155   2.395857   3.367976   0.000000
    16  C    4.147509   2.398765   1.392899   2.136348   1.386162
    17  H    2.932266   2.130915   3.376322   4.264459   1.074274
    18  H    6.100112   4.461985   2.749487   2.616373   3.291710
    19  C    5.356228   3.793008   2.526970   2.715230   2.520287
    20  H    5.254789   3.984572   3.400190   3.739374   2.606686
    21  N    6.179962   4.642172   3.185944   3.133418   3.456250
    22  H    6.027292   4.685604   3.719429   3.845193   3.533835
                   16         17         18         19         20
    16  C    0.000000
    17  H    2.142236   0.000000
    18  H    2.144872   3.579540   0.000000
    19  C    1.517090   2.727160   1.079140   0.000000
    20  H    2.141852   2.374562   1.746693   1.083413   0.000000
    21  N    2.484766   3.629262   2.045944   1.450835   2.063528
    22  H    2.891086   3.542453   2.926057   2.105887   2.389641
                   21         22
    21  N    0.000000
    22  H    0.994524   0.000000
 Stoichiometry    C9H10BrNO
 Framework group  C1[X(C9H10BrNO)]
 Deg. of freedom    60
 Full point group                 C1      NOp   1
 Largest Abelian subgroup         C1      NOp   1
 Largest concise Abelian subgroup C1      NOp   1
                         Standard orientation:                         
 ---------------------------------------------------------------------
 Center     Atomic      Atomic             Coordinates (Angstroms)
 Number     Number       Type             X           Y           Z
 ---------------------------------------------------------------------
      1          1           0       -5.724734   -0.461448    1.163527
      2          6           0       -4.694028   -0.740616    1.328999
      3          1           0       -4.627716   -1.808618    1.500809
      4          1           0       -4.341168   -0.226735    2.217902
      5          6           0       -3.870098   -0.287305    0.142941
      6          8           0       -4.171915    0.677647   -0.506608
      7          1           0        2.360476    2.165793    0.728633
      8          1           0        0.142842    3.220857    0.491645
      9          6           0        1.526479    1.603838    0.354351
     10          6           0        0.275091    2.189315    0.219109
     11         35           0        3.383979   -0.543270    0.166755
     12          6           0        1.680436    0.282031   -0.006509
     13          6           0       -0.794871    1.461508   -0.265911
     14          1           0       -1.760457    1.921589   -0.370402
     15          6           0        0.617566   -0.460193   -0.494428
     16          6           0       -0.631793    0.125765   -0.625583
     17          1           0        0.771163   -1.486495   -0.772236
     18          1           0       -2.340463   -0.121600   -1.898270
     19          6           0       -1.807430   -0.680508   -1.144585
     20          1           0       -1.450869   -1.595388   -1.602453
     21          7           0       -2.769875   -1.034039   -0.118116
     22          1           0       -2.512013   -1.739433    0.533807
 ---------------------------------------------------------------------
 Rotational constants (GHZ):      1.8274466      0.2513991      0.2355328

 Test job not archived.
 1\1\GINC-LAC-137\FOpt\RHF\6-31G(d)\C9H10Br1N1O1\SONGLIN3\29-Nov-2017\0
 \\#HF/6-31G* SCF=tight Test Pop=MK iop(6/33=2) iop(6/42=6) opt # iop(6
 /50=1)\\remark line goes here\\0,1\H,5.724734,-0.461448,-1.163527\C,4.
 694028,-0.740616,-1.328999\H,4.627716,-1.808618,-1.500809\H,4.341168,-
 0.226735,-2.217902\C,3.870098,-0.287305,-0.142941\O,4.171915,0.677647,
 0.506608\H,-2.360476,2.165793,-0.728633\H,-0.142842,3.220857,-0.491645
 \C,-1.526479,1.603838,-0.354351\C,-0.275091,2.189315,-0.219109\Br,-3.3
 83979,-0.54327,-0.166755\C,-1.680436,0.282031,0.006509\C,0.794871,1.46
 1508,0.265911\H,1.760457,1.921589,0.370402\C,-0.617566,-0.460193,0.494
 428\C,0.631793,0.125765,0.625583\H,-0.771163,-1.486495,0.772236\H,2.34
 0463,-0.1216,1.89827\C,1.80743,-0.680508,1.144585\H,1.450869,-1.595388
 ,1.602453\N,2.769875,-1.034039,0.118116\H,2.512013,-1.739433,-0.533807
 \\Version=ES64L-G09RevD.01\State=1-A\HF=-3045.862061\RMSD=5.781e-09\RM
 SF=9.019e-07\Dipole=0.2106201,-0.7396506,-0.6732834\Quadrupole=-7.0509
 144,5.991715,1.0591994,-8.4862378,-5.610059,-1.5191125\PG=C01 [X(C9H10
 Br1N1O1)]\\@


 COMMON SENSE IS NOT SO COMMON.   -- VOLTAIRE
 Job cpu time:       0 days  0 hours  0 minutes 39.0 seconds.
 File lengths (MBytes):  RWF=    134 Int=      0 D2E=      0 Chk=      5 Scr=      2
 Normal termination of Gaussian 09 at Wed Nov 29 20:12:44 2017.
