 Entering Gaussian System, Link 0=g09
 Initial command:
 /opt/software/Gaussian/g09/l1.exe "/mnt/ls15/scratch/users/songlin3/Gau-19862.inp" -scrdir="/mnt/ls15/scratch/users/songlin3/"
 Entering Link 1 = /opt/software/Gaussian/g09/l1.exe PID=     19863.
  
 Copyright (c) 1988,1990,1992,1993,1995,1998,2003,2009,2013,
            Gaussian, Inc.  All Rights Reserved.
  
 This is part of the Gaussian(R) 09 program.  It is based on
 the Gaussian(R) 03 system (copyright 2003, Gaussian, Inc.),
 the Gaussian(R) 98 system (copyright 1998, Gaussian, Inc.),
 the Gaussian(R) 94 system (copyright 1995, Gaussian, Inc.),
 the Gaussian 92(TM) system (copyright 1992, Gaussian, Inc.),
 the Gaussian 90(TM) system (copyright 1990, Gaussian, Inc.),
 the Gaussian 88(TM) system (copyright 1988, Gaussian, Inc.),
 the Gaussian 86(TM) system (copyright 1986, Carnegie Mellon
 University), and the Gaussian 82(TM) system (copyright 1983,
 Carnegie Mellon University). Gaussian is a federally registered
 trademark of Gaussian, Inc.
  
 This software contains proprietary and confidential information,
 including trade secrets, belonging to Gaussian, Inc.
  
 This software is provided under written license and may be
 used, copied, transmitted, or stored only in accord with that
 written license.
  
 The following legend is applicable only to US Government
 contracts under FAR:
  
                    RESTRICTED RIGHTS LEGEND
  
 Use, reproduction and disclosure by the US Government is
 subject to restrictions as set forth in subparagraphs (a)
 and (c) of the Commercial Computer Software - Restricted
 Rights clause in FAR 52.227-19.
  
 Gaussian, Inc.
 340 Quinnipiac St., Bldg. 40, Wallingford CT 06492
  
  
 ---------------------------------------------------------------
 Warning -- This program may not be used in any manner that
 competes with the business of Gaussian, Inc. or will provide
 assistance to any competitor of Gaussian, Inc.  The licensee
 of this program is prohibited from giving any competitor of
 Gaussian, Inc. access to this program.  By using this program,
 the user acknowledges that Gaussian, Inc. is engaged in the
 business of creating and licensing software in the field of
 computational chemistry and represents and warrants to the
 licensee that it is not a competitor of Gaussian, Inc. and that
 it will not use this program in any manner prohibited above.
 ---------------------------------------------------------------
  

 Cite this work as:
 Gaussian 09, Revision D.01,
 M. J. Frisch, G. W. Trucks, H. B. Schlegel, G. E. Scuseria, 
 M. A. Robb, J. R. Cheeseman, G. Scalmani, V. Barone, B. Mennucci, 
 G. A. Petersson, H. Nakatsuji, M. Caricato, X. Li, H. P. Hratchian, 
 A. F. Izmaylov, J. Bloino, G. Zheng, J. L. Sonnenberg, M. Hada, 
 M. Ehara, K. Toyota, R. Fukuda, J. Hasegawa, M. Ishida, T. Nakajima, 
 Y. Honda, O. Kitao, H. Nakai, T. Vreven, J. A. Montgomery, Jr., 
 J. E. Peralta, F. Ogliaro, M. Bearpark, J. J. Heyd, E. Brothers, 
 K. N. Kudin, V. N. Staroverov, T. Keith, R. Kobayashi, J. Normand, 
 K. Raghavachari, A. Rendell, J. C. Burant, S. S. Iyengar, J. Tomasi, 
 M. Cossi, N. Rega, J. M. Millam, M. Klene, J. E. Knox, J. B. Cross, 
 V. Bakken, C. Adamo, J. Jaramillo, R. Gomperts, R. E. Stratmann, 
 O. Yazyev, A. J. Austin, R. Cammi, C. Pomelli, J. W. Ochterski, 
 R. L. Martin, K. Morokuma, V. G. Zakrzewski, G. A. Voth, 
 P. Salvador, J. J. Dannenberg, S. Dapprich, A. D. Daniels, 
 O. Farkas, J. B. Foresman, J. V. Ortiz, J. Cioslowski, 
 and D. J. Fox, Gaussian, Inc., Wallingford CT, 2013.
 
 ******************************************
 Gaussian 09:  ES64L-G09RevD.01 24-Apr-2013
                29-Nov-2017 
 ******************************************
 %RWF=myrwf
 %NoSave
 %chk=opt.chk
 %NprocShared=4
 Will use up to    4 processors via shared memory.
 %Mem=16GB
 ------------------------------------------------------------
 #HF/6-31G* SCF=tight Test Pop=MK iop(6/33=2) iop(6/42=6) opt
 ------------------------------------------------------------
 1/18=20,19=15,38=1/1,3;
 2/9=110,12=2,17=6,18=5,40=1/2;
 3/5=1,6=6,7=1,11=9,16=1,25=1,30=1,71=1/1,2,3;
 4//1;
 5/5=2,32=2,38=5/2;
 6/7=2,8=2,9=2,10=2,15=8,20=1,28=1,33=2,42=6/1,2;
 7//1,2,3,16;
 1/18=20,19=15/3(2);
 2/9=110/2;
 99//99;
 2/9=110/2;
 3/5=1,6=6,7=1,11=9,16=1,25=1,30=1,71=1/1,2,3;
 4/5=5,16=3,69=1/1;
 5/5=2,32=2,38=5/2;
 7//1,2,3,16;
 1/18=20,19=15/3(-5);
 2/9=110/2;
 6/7=2,8=2,9=2,10=2,15=8,19=2,20=1,28=1,33=2,42=6/1,2;
 99/9=1/99;
 ---------------------
 remark line goes here
 ---------------------
 Symbolic Z-matrix:
 Charge =  0 Multiplicity = 1
 H                     18.472   -12.913    20.768 
 C                     18.056   -11.94     21.029 
 H                     18.712   -11.153    20.657 
 H                     17.971   -11.86     22.113 
 C                     16.651   -11.749    20.407 
 O                     16.152   -12.641    19.72 
 H                     10.845   -10.63     24.028 
 H                     11.311   -12.552    22.521 
 C                     11.615   -10.549    23.273 
 C                     11.88    -11.638    22.417 
 Br                    12.095   -7.925     24.375 
 C                     12.373   -9.368     23.162 
 C                     12.888   -11.539    21.436 
 H                     13.091   -12.379    20.786 
 C                     13.371   -9.268     22.173 
 C                     13.631   -10.347    21.302 
 H                     13.953   -8.362     22.101 
 H                     14.389   -10.764    19.329 
 C                     14.691   -10.212    20.222 
 H                     14.729   -9.161     19.941 
 N                     16.03    -10.589    20.654 
 H                     16.552   -9.888     21.18 
 

 GradGradGradGradGradGradGradGradGradGradGradGradGradGradGradGradGradGrad
 Berny optimization.
 Initialization pass.
                           ----------------------------
                           !    Initial Parameters    !
                           ! (Angstroms and Degrees)  !
 --------------------------                            --------------------------
 ! Name  Definition              Value          Derivative Info.                !
 --------------------------------------------------------------------------------
 ! R1    R(1,2)                  1.0899         estimate D2E/DX2                !
 ! R2    R(2,3)                  1.09           estimate D2E/DX2                !
 ! R3    R(2,4)                  1.0903         estimate D2E/DX2                !
 ! R4    R(2,5)                  1.5484         estimate D2E/DX2                !
 ! R5    R(5,6)                  1.2315         estimate D2E/DX2                !
 ! R6    R(5,21)                 1.3387         estimate D2E/DX2                !
 ! R7    R(7,9)                  1.0814         estimate D2E/DX2                !
 ! R8    R(8,10)                 1.0817         estimate D2E/DX2                !
 ! R9    R(9,10)                 1.4103         estimate D2E/DX2                !
 ! R10   R(9,12)                 1.4077         estimate D2E/DX2                !
 ! R11   R(10,13)                1.41           estimate D2E/DX2                !
 ! R12   R(11,12)                1.9055         estimate D2E/DX2                !
 ! R13   R(12,15)                1.4086         estimate D2E/DX2                !
 ! R14   R(13,14)                1.0813         estimate D2E/DX2                !
 ! R15   R(13,16)                1.411          estimate D2E/DX2                !
 ! R16   R(15,16)                1.4108         estimate D2E/DX2                !
 ! R17   R(15,17)                1.0792         estimate D2E/DX2                !
 ! R18   R(16,19)                1.5193         estimate D2E/DX2                !
 ! R19   R(18,19)                1.0924         estimate D2E/DX2                !
 ! R20   R(19,20)                1.0886         estimate D2E/DX2                !
 ! R21   R(19,21)                1.4566         estimate D2E/DX2                !
 ! R22   R(21,22)                1.0201         estimate D2E/DX2                !
 ! A1    A(1,2,3)              109.4591         estimate D2E/DX2                !
 ! A2    A(1,2,4)              109.4726         estimate D2E/DX2                !
 ! A3    A(1,2,5)              111.1169         estimate D2E/DX2                !
 ! A4    A(3,2,4)              109.4671         estimate D2E/DX2                !
 ! A5    A(3,2,5)              108.6599         estimate D2E/DX2                !
 ! A6    A(4,2,5)              108.6395         estimate D2E/DX2                !
 ! A7    A(2,5,6)              120.1607         estimate D2E/DX2                !
 ! A8    A(2,5,21)             116.9806         estimate D2E/DX2                !
 ! A9    A(6,5,21)             122.8587         estimate D2E/DX2                !
 ! A10   A(7,9,10)             119.9811         estimate D2E/DX2                !
 ! A11   A(7,9,12)             120.0851         estimate D2E/DX2                !
 ! A12   A(10,9,12)            119.9198         estimate D2E/DX2                !
 ! A13   A(8,10,9)             119.6892         estimate D2E/DX2                !
 ! A14   A(8,10,13)            120.1507         estimate D2E/DX2                !
 ! A15   A(9,10,13)            120.1588         estimate D2E/DX2                !
 ! A16   A(9,12,11)            120.4357         estimate D2E/DX2                !
 ! A17   A(9,12,15)            119.7641         estimate D2E/DX2                !
 ! A18   A(11,12,15)           119.7728         estimate D2E/DX2                !
 ! A19   A(10,13,14)           119.8587         estimate D2E/DX2                !
 ! A20   A(10,13,16)           120.1209         estimate D2E/DX2                !
 ! A21   A(14,13,16)           120.0204         estimate D2E/DX2                !
 ! A22   A(12,15,16)           120.6463         estimate D2E/DX2                !
 ! A23   A(12,15,17)           119.2432         estimate D2E/DX2                !
 ! A24   A(16,15,17)           120.0968         estimate D2E/DX2                !
 ! A25   A(13,16,15)           119.3684         estimate D2E/DX2                !
 ! A26   A(13,16,19)           120.662          estimate D2E/DX2                !
 ! A27   A(15,16,19)           119.9654         estimate D2E/DX2                !
 ! A28   A(16,19,18)           110.0792         estimate D2E/DX2                !
 ! A29   A(16,19,20)           107.0762         estimate D2E/DX2                !
 ! A30   A(16,19,21)           114.0505         estimate D2E/DX2                !
 ! A31   A(18,19,20)           106.6484         estimate D2E/DX2                !
 ! A32   A(18,19,21)           111.4564         estimate D2E/DX2                !
 ! A33   A(20,19,21)           107.1189         estimate D2E/DX2                !
 ! A34   A(5,21,19)            126.5812         estimate D2E/DX2                !
 ! A35   A(5,21,22)            116.95           estimate D2E/DX2                !
 ! A36   A(19,21,22)           116.454          estimate D2E/DX2                !
 ! D1    D(1,2,5,6)              0.0066         estimate D2E/DX2                !
 ! D2    D(1,2,5,21)          -179.9786         estimate D2E/DX2                !
 ! D3    D(3,2,5,6)            120.4942         estimate D2E/DX2                !
 ! D4    D(3,2,5,21)           -59.491          estimate D2E/DX2                !
 ! D5    D(4,2,5,6)           -120.4844         estimate D2E/DX2                !
 ! D6    D(4,2,5,21)            59.5304         estimate D2E/DX2                !
 ! D7    D(2,5,21,19)         -177.3473         estimate D2E/DX2                !
 ! D8    D(2,5,21,22)            4.111          estimate D2E/DX2                !
 ! D9    D(6,5,21,19)            2.6679         estimate D2E/DX2                !
 ! D10   D(6,5,21,22)         -175.8738         estimate D2E/DX2                !
 ! D11   D(7,9,10,8)            -0.0796         estimate D2E/DX2                !
 ! D12   D(7,9,10,13)         -179.6598         estimate D2E/DX2                !
 ! D13   D(12,9,10,8)          178.5627         estimate D2E/DX2                !
 ! D14   D(12,9,10,13)          -1.0175         estimate D2E/DX2                !
 ! D15   D(7,9,12,11)            2.1378         estimate D2E/DX2                !
 ! D16   D(7,9,12,15)         -179.7714         estimate D2E/DX2                !
 ! D17   D(10,9,12,11)        -176.5031         estimate D2E/DX2                !
 ! D18   D(10,9,12,15)           1.5877         estimate D2E/DX2                !
 ! D19   D(8,10,13,14)           0.0691         estimate D2E/DX2                !
 ! D20   D(8,10,13,16)        -179.9203         estimate D2E/DX2                !
 ! D21   D(9,10,13,14)         179.6473         estimate D2E/DX2                !
 ! D22   D(9,10,13,16)          -0.342          estimate D2E/DX2                !
 ! D23   D(9,12,15,16)          -0.8112         estimate D2E/DX2                !
 ! D24   D(9,12,15,17)        -179.4667         estimate D2E/DX2                !
 ! D25   D(11,12,15,16)        177.2924         estimate D2E/DX2                !
 ! D26   D(11,12,15,17)         -1.3631         estimate D2E/DX2                !
 ! D27   D(10,13,16,15)          1.1148         estimate D2E/DX2                !
 ! D28   D(10,13,16,19)       -178.1417         estimate D2E/DX2                !
 ! D29   D(14,13,16,15)       -178.8745         estimate D2E/DX2                !
 ! D30   D(14,13,16,19)          1.869          estimate D2E/DX2                !
 ! D31   D(12,15,16,13)         -0.5405         estimate D2E/DX2                !
 ! D32   D(12,15,16,19)        178.7212         estimate D2E/DX2                !
 ! D33   D(17,15,16,13)        178.1035         estimate D2E/DX2                !
 ! D34   D(17,15,16,19)         -2.6348         estimate D2E/DX2                !
 ! D35   D(13,16,19,18)         33.9843         estimate D2E/DX2                !
 ! D36   D(13,16,19,20)        149.5403         estimate D2E/DX2                !
 ! D37   D(13,16,19,21)        -92.1461         estimate D2E/DX2                !
 ! D38   D(15,16,19,18)       -145.2677         estimate D2E/DX2                !
 ! D39   D(15,16,19,20)        -29.7117         estimate D2E/DX2                !
 ! D40   D(15,16,19,21)         88.6019         estimate D2E/DX2                !
 ! D41   D(16,19,21,5)         100.6022         estimate D2E/DX2                !
 ! D42   D(16,19,21,22)        -80.8498         estimate D2E/DX2                !
 ! D43   D(18,19,21,5)         -24.8032         estimate D2E/DX2                !
 ! D44   D(18,19,21,22)        153.7448         estimate D2E/DX2                !
 ! D45   D(20,19,21,5)        -141.1086         estimate D2E/DX2                !
 ! D46   D(20,19,21,22)         37.4394         estimate D2E/DX2                !
 --------------------------------------------------------------------------------
 Trust Radius=3.00D-01 FncErr=1.00D-07 GrdErr=1.00D-07
 Number of steps in this run=    114 maximum allowed number of steps=    132.
 GradGradGradGradGradGradGradGradGradGradGradGradGradGradGradGradGradGrad

                          Input orientation:                          
 ---------------------------------------------------------------------
 Center     Atomic      Atomic             Coordinates (Angstroms)
 Number     Number       Type             X           Y           Z
 ---------------------------------------------------------------------
      1          1           0       18.472000  -12.913000   20.768000
      2          6           0       18.056000  -11.940000   21.029000
      3          1           0       18.712000  -11.153000   20.657000
      4          1           0       17.971000  -11.860000   22.113000
      5          6           0       16.651000  -11.749000   20.407000
      6          8           0       16.152000  -12.641000   19.720000
      7          1           0       10.845000  -10.630000   24.028000
      8          1           0       11.311000  -12.552000   22.521000
      9          6           0       11.615000  -10.549000   23.273000
     10          6           0       11.880000  -11.638000   22.417000
     11         35           0       12.095000   -7.925000   24.375000
     12          6           0       12.373000   -9.368000   23.162000
     13          6           0       12.888000  -11.539000   21.436000
     14          1           0       13.091000  -12.379000   20.786000
     15          6           0       13.371000   -9.268000   22.173000
     16          6           0       13.631000  -10.347000   21.302000
     17          1           0       13.953000   -8.362000   22.101000
     18          1           0       14.389000  -10.764000   19.329000
     19          6           0       14.691000  -10.212000   20.222000
     20          1           0       14.729000   -9.161000   19.941000
     21          7           0       16.030000  -10.589000   20.654000
     22          1           0       16.552000   -9.888000   21.180000
 ---------------------------------------------------------------------
                    Distance matrix (angstroms):
                    1          2          3          4          5
     1  H    0.000000
     2  C    1.089911   0.000000
     3  H    1.779753   1.089995   0.000000
     4  H    1.780122   1.090266   1.780131   0.000000
     5  C    2.191177   1.548351   2.159962   2.159897   0.000000
     6  O    2.560212   2.414560   3.105755   3.105668   1.231517
     7  H    8.602954   7.918878   8.574780   7.480642   6.933501
     8  H    7.381277   6.935102   7.759285   6.708273   5.799087
     9  C    7.673459   6.961099   7.587864   6.592652   5.917369
    10  C    6.913703   6.337249   7.071708   6.102621   5.178307
    11  Br   8.863223   7.927765   8.247921   7.424840   7.150184
    12  C    7.449568   6.592523   7.045862   6.216757   5.617871
    13  C    5.789228   5.199488   5.888532   5.137924   3.906803
    14  H    5.407462   4.990290   5.754595   5.083767   3.635126
    15  C    6.424971   5.513397   5.863255   5.280347   4.475770
    16  C    5.504979   4.710924   5.184807   4.667172   3.447757
    17  H    6.550561   5.548502   5.702885   5.327333   4.649797
    18  H    4.833199   4.209497   4.539079   4.667183   2.692388
    19  C    4.678619   3.867875   4.152487   4.129187   2.497638
    20  H    5.363905   4.469397   4.510544   4.744760   3.257144
    21  N    3.373031   2.463839   2.740662   2.740730   1.338749
    22  H    3.606490   2.548631   2.557216   2.602467   2.017585
                    6          7          8          9         10
     6  O    0.000000
     7  H    7.125113   0.000000
     8  H    5.593640   2.486421   0.000000
     9  C    6.130631   1.081428   2.161002   0.000000
    10  C    5.150709   2.163934   1.081653   1.410277   0.000000
    11  Br   7.769745   2.999989   5.045899   2.886205   4.203137
    12  C    6.069657   2.162726   3.417101   1.407709   2.439462
    13  C    3.848734   3.423243   2.165715   2.444422   1.410045
    14  H    3.251880   4.314404   2.491697   3.422374   2.162351
    15  C    5.012813   3.417125   3.892218   2.436082   2.810608
    16  C    3.757739   3.908064   3.424965   2.826641   2.444567
    17  H    5.367924   4.303117   4.971183   3.409222   3.889648
    18  H    2.604646   5.887146   4.781202   4.826638   4.073659
    19  C    2.878640   5.426977   4.710138   4.345566   3.840992
    20  H    3.766188   5.826404   5.462418   4.767155   4.514743
    21  N    2.257863   6.186258   5.441325   5.133516   4.629370
    22  H    3.141753   6.421177   6.030196   5.402919   5.140064
                   11         12         13         14         15
    11  Br   0.000000
    12  C    1.905493   0.000000
    13  C    4.725205   2.820912   0.000000
    14  H    5.806122   3.902182   1.081346   0.000000
    15  C    2.877608   1.408590   2.435960   3.417673   0.000000
    16  C    4.203416   2.449613   1.410982   2.164920   1.410844
    17  H    2.968873   2.152709   3.416106   4.313764   1.079233
    18  H    6.227718   4.550270   2.700569   2.532958   3.370857
    19  C    5.405275   3.837846   2.546671   2.752087   2.537703
    20  H    5.303396   3.996051   3.358451   3.708449   2.614849
    21  N    6.035475   4.599408   3.374343   3.443725   3.335069
    22  H    5.824624   4.654328   4.026938   4.282387   3.389574
                   16         17         18         19         20
    16  C    0.000000
    17  H    2.163865   0.000000
    18  H    2.154340   3.693736   0.000000
    19  C    1.519284   2.738208   1.092409   0.000000
    20  H    2.112941   2.430263   1.749215   1.088580   0.000000
    21  N    2.496732   3.371538   2.116396   1.456597   2.059163
    22  H    2.959359   3.151463   2.978615   2.118032   2.320987
                   21         22
    21  N    0.000000
    22  H    1.020079   0.000000
 Stoichiometry    C9H10BrNO
 Framework group  C1[X(C9H10BrNO)]
 Deg. of freedom    60
 Full point group                 C1      NOp   1
 Largest Abelian subgroup         C1      NOp   1
 Largest concise Abelian subgroup C1      NOp   1
                         Standard orientation:                         
 ---------------------------------------------------------------------
 Center     Atomic      Atomic             Coordinates (Angstroms)
 Number     Number       Type             X           Y           Z
 ---------------------------------------------------------------------
      1          1           0        5.450517   -0.992554   -1.569899
      2          6           0        4.543025   -1.421745   -1.145446
      3          1           0        4.793741   -2.326773   -0.592133
      4          1           0        3.847362   -1.667592   -1.948125
      5          6           0        3.853523   -0.426228   -0.180603
      6          8           0        4.345194    0.685528    0.016603
      7          1           0       -2.581532    2.030701   -0.972444
      8          1           0       -0.478552    3.356414   -0.925015
      9          6           0       -1.690751    1.613065   -0.523471
     10          6           0       -0.497383    2.364032   -0.495136
     11         35           0       -3.288775   -0.754912   -0.112150
     12          6           0       -1.712794    0.309467    0.007370
     13          6           0        0.668172    1.820372    0.082913
     14          1           0        1.582059    2.398233    0.096907
     15          6           0       -0.549993   -0.226037    0.594953
     16          6           0        0.643336    0.525119    0.641995
     17          1           0       -0.573836   -1.229484    0.991524
     18          1           0        2.447675    0.735264    1.800175
     19          6           0        1.880343   -0.056312    1.305303
     20          1           0        1.536487   -0.729810    2.088355
     21          7           0        2.723601   -0.835747    0.409161
     22          1           0        2.431566   -1.796884    0.231700
 ---------------------------------------------------------------------
 Rotational constants (GHZ):      1.4901496      0.2564733      0.2334805
 Standard basis: 6-31G(d) (6D, 7F)
 There are   215 symmetry adapted cartesian basis functions of A   symmetry.
 There are   215 symmetry adapted basis functions of A   symmetry.
   215 basis functions,   431 primitive gaussians,   215 cartesian basis functions
    57 alpha electrons       57 beta electrons
       nuclear repulsion energy       889.3127187656 Hartrees.
 NAtoms=   22 NActive=   22 NUniq=   22 SFac= 1.00D+00 NAtFMM=   60 NAOKFM=F Big=F
 Integral buffers will be    131072 words long.
 Raffenetti 1 integral format.
 Two-electron integral symmetry is turned on.
 One-electron integrals computed using PRISM.
 NBasis=   215 RedAO= T EigKep=  4.90D-04  NBF=   215
 NBsUse=   215 1.00D-06 EigRej= -1.00D+00 NBFU=   215
 ExpMin= 1.43D-01 ExpMax= 5.74D+05 ExpMxC= 5.74D+03 IAcc=2 IRadAn=         4 AccDes= 0.00D+00
 Harris functional with IExCor=  205 and IRadAn=       4 diagonalized for initial guess.
 HarFok:  IExCor=  205 AccDes= 0.00D+00 IRadAn=         4 IDoV= 1 UseB2=F ITyADJ=14
 ICtDFT=  3500011 ScaDFX=  1.000000  1.000000  1.000000  1.000000
 FoFCou: FMM=F IPFlag=           0 FMFlag=      100000 FMFlg1=           0
         NFxFlg=           0 DoJE=T BraDBF=F KetDBF=T FulRan=T
         wScrn=  0.000000 ICntrl=     500 IOpCl=  0 I1Cent=   200000004 NGrid=           0
         NMat0=    1 NMatS0=      1 NMatT0=    0 NMatD0=    1 NMtDS0=    0 NMtDT0=    0
 Petite list used in FoFCou.
 Keep R1 ints in memory in canonical form, NReq=274794690.
 Requested convergence on RMS density matrix=1.00D-08 within 128 cycles.
 Requested convergence on MAX density matrix=1.00D-06.
 Requested convergence on             energy=1.00D-06.
 No special actions if energy rises.
 SCF Done:  E(RHF) =  -3045.85083057     A.U. after   15 cycles
            NFock= 15  Conv=0.70D-08     -V/T= 2.0042

 **********************************************************************

            Population analysis using the SCF density.

 **********************************************************************

 Orbital symmetries:
 BldTbl:  Degeneracy threshold= 1.00D-02
       Occupied  (A) (A) (A) (A) (A) (A) (A) (A) (A) (A) (A) (A)
                 (A) (A) (A) (A) (A) (A) (A) (A) (A) (A) (A) (A)
                 (A) (A) (A) (A) (A) (A) (A) (A) (A) (A) (A) (A)
                 (A) (A) (A) (A) (A) (A) (A) (A) (A) (A) (A) (A)
                 (A) (A) (A) (A) (A) (A) (A) (A) (A)
       Virtual   (A) (A) (A) (A) (A) (A) (A) (A) (A) (A) (A) (A)
                 (A) (A) (A) (A) (A) (A) (A) (A) (A) (A) (A) (A)
                 (A) (A) (A) (A) (A) (A) (A) (A) (A) (A) (A) (A)
                 (A) (A) (A) (A) (A) (A) (A) (A) (A) (A) (A) (A)
                 (A) (A) (A) (A) (A) (A) (A) (A) (A) (A) (A) (A)
                 (A) (A) (A) (A) (A) (A) (A) (A) (A) (A) (A) (A)
                 (A) (A) (A) (A) (A) (A) (A) (A) (A) (A) (A) (A)
                 (A) (A) (A) (A) (A) (A) (A) (A) (A) (A) (A) (A)
                 (A) (A) (A) (A) (A) (A) (A) (A) (A) (A) (A) (A)
                 (A) (A) (A) (A) (A) (A) (A) (A) (A) (A) (A) (A)
                 (A) (A) (A) (A) (A) (A) (A) (A) (A) (A) (A) (A)
                 (A) (A) (A) (A) (A) (A) (A) (A) (A) (A) (A) (A)
                 (A) (A) (A) (A) (A) (A) (A) (A) (A) (A) (A) (A)
                 (A) (A)
 The electronic state is 1-A.
 Alpha  occ. eigenvalues -- -490.06967 -64.48114 -58.62063 -58.61878 -58.61868
 Alpha  occ. eigenvalues --  -20.51658 -15.59895 -11.35333 -11.30889 -11.28445
 Alpha  occ. eigenvalues --  -11.26097 -11.25904 -11.25836 -11.25535 -11.24997
 Alpha  occ. eigenvalues --  -11.24051  -9.72934  -7.47859  -7.46975  -7.46971
 Alpha  occ. eigenvalues --   -3.21752  -3.21325  -3.21323  -3.20295  -3.20295
 Alpha  occ. eigenvalues --   -1.36902  -1.23928  -1.16629  -1.07350  -1.04559
 Alpha  occ. eigenvalues --   -1.00305  -0.97014  -0.93722  -0.83649  -0.80550
 Alpha  occ. eigenvalues --   -0.78654  -0.70326  -0.69048  -0.65517  -0.64958
 Alpha  occ. eigenvalues --   -0.64180  -0.61600  -0.59137  -0.57008  -0.56978
 Alpha  occ. eigenvalues --   -0.56579  -0.54882  -0.52940  -0.52121  -0.50049
 Alpha  occ. eigenvalues --   -0.48947  -0.43451  -0.41613  -0.41233  -0.39190
 Alpha  occ. eigenvalues --   -0.34372  -0.32897
 Alpha virt. eigenvalues --    0.11807   0.12038   0.16317   0.20303   0.20564
 Alpha virt. eigenvalues --    0.25310   0.25939   0.27818   0.29772   0.30484
 Alpha virt. eigenvalues --    0.30848   0.31622   0.32459   0.33082   0.33656
 Alpha virt. eigenvalues --    0.37489   0.38859   0.40737   0.43443   0.45786
 Alpha virt. eigenvalues --    0.47421   0.48265   0.49749   0.51423   0.57344
 Alpha virt. eigenvalues --    0.58948   0.63456   0.65095   0.66183   0.66352
 Alpha virt. eigenvalues --    0.67067   0.69172   0.71240   0.72552   0.73544
 Alpha virt. eigenvalues --    0.74495   0.75665   0.76617   0.76969   0.79552
 Alpha virt. eigenvalues --    0.81000   0.81245   0.82384   0.83998   0.84328
 Alpha virt. eigenvalues --    0.85821   0.88271   0.89287   0.92474   0.93559
 Alpha virt. eigenvalues --    0.95945   0.96917   0.98504   1.00393   1.01830
 Alpha virt. eigenvalues --    1.02442   1.05353   1.08137   1.08787   1.09791
 Alpha virt. eigenvalues --    1.10940   1.12658   1.13496   1.14361   1.15784
 Alpha virt. eigenvalues --    1.16254   1.17400   1.18137   1.19548   1.21402
 Alpha virt. eigenvalues --    1.22263   1.22922   1.26932   1.31851   1.34401
 Alpha virt. eigenvalues --    1.36017   1.38593   1.39211   1.43250   1.46429
 Alpha virt. eigenvalues --    1.49043   1.50461   1.58116   1.59540   1.62236
 Alpha virt. eigenvalues --    1.64386   1.66253   1.70584   1.71926   1.73418
 Alpha virt. eigenvalues --    1.75072   1.75801   1.79676   1.80869   1.82488
 Alpha virt. eigenvalues --    1.85723   1.90558   1.97699   2.04358   2.07168
 Alpha virt. eigenvalues --    2.08696   2.10454   2.11994   2.12625   2.15968
 Alpha virt. eigenvalues --    2.21087   2.22607   2.23664   2.26080   2.27662
 Alpha virt. eigenvalues --    2.30178   2.34829   2.35691   2.37209   2.39012
 Alpha virt. eigenvalues --    2.43094   2.44582   2.47405   2.50108   2.52781
 Alpha virt. eigenvalues --    2.54127   2.58105   2.59495   2.62428   2.65026
 Alpha virt. eigenvalues --    2.67327   2.70425   2.76827   2.78791   2.85666
 Alpha virt. eigenvalues --    2.89670   2.91978   2.95453   3.00848   3.02797
 Alpha virt. eigenvalues --    3.05617   3.07816   3.08601   3.11379   3.19982
 Alpha virt. eigenvalues --    3.24816   3.33424   3.39737   3.52805   3.70689
 Alpha virt. eigenvalues --    4.38121   4.45685   4.47521   4.51476   4.55766
 Alpha virt. eigenvalues --    4.61743   4.73047   4.74392   4.81537   4.89703
 Alpha virt. eigenvalues --    5.10487   9.27423  74.46965
          Condensed to atoms (all electrons):
               1          2          3          4          5          6
     1  H    0.452155   0.385407  -0.018808  -0.018550  -0.028784   0.003600
     2  C    0.385407   5.260848   0.371725   0.373277   0.371506  -0.070230
     3  H   -0.018808   0.371725   0.518973  -0.024469  -0.033610   0.001325
     4  H   -0.018550   0.373277  -0.024469   0.511794  -0.033816   0.001242
     5  C   -0.028784   0.371506  -0.033610  -0.033816   4.179405   0.602679
     6  O    0.003600  -0.070230   0.001325   0.001242   0.602679   8.185007
     7  H    0.000000   0.000000   0.000000   0.000000   0.000000   0.000000
     8  H    0.000000   0.000000   0.000000   0.000000   0.000000   0.000000
     9  C    0.000000   0.000000   0.000000   0.000000  -0.000001   0.000000
    10  C    0.000000   0.000000   0.000000   0.000000   0.000012   0.000015
    11  Br   0.000000   0.000000   0.000000   0.000000   0.000000   0.000000
    12  C    0.000000   0.000000   0.000000   0.000000  -0.000003   0.000000
    13  C    0.000000   0.000010   0.000000  -0.000003   0.001469   0.000066
    14  H    0.000000   0.000029   0.000000  -0.000004   0.000307   0.002181
    15  C    0.000000  -0.000013   0.000000   0.000003  -0.000072  -0.000021
    16  C    0.000002  -0.000201  -0.000001   0.000046  -0.002012  -0.001325
    17  H    0.000000   0.000000   0.000000   0.000000   0.000006   0.000000
    18  H    0.000000   0.000181  -0.000014  -0.000004   0.000323   0.004802
    19  C   -0.000062   0.003831  -0.000163  -0.000210  -0.014868   0.006876
    20  H    0.000001  -0.000006  -0.000002  -0.000005   0.002750   0.000322
    21  N    0.003452  -0.117569   0.003637   0.003715   0.233950  -0.104199
    22  H   -0.000004  -0.000305   0.000645   0.000410  -0.020456   0.002458
               7          8          9         10         11         12
     1  H    0.000000   0.000000   0.000000   0.000000   0.000000   0.000000
     2  C    0.000000   0.000000   0.000000   0.000000   0.000000   0.000000
     3  H    0.000000   0.000000   0.000000   0.000000   0.000000   0.000000
     4  H    0.000000   0.000000   0.000000   0.000000   0.000000   0.000000
     5  C    0.000000   0.000000  -0.000001   0.000012   0.000000  -0.000003
     6  O    0.000000   0.000000   0.000000   0.000015   0.000000   0.000000
     7  H    0.445635  -0.001236   0.381407  -0.027572  -0.000335  -0.030070
     8  H   -0.001236   0.452985  -0.028344   0.381023  -0.000082   0.001790
     9  C    0.381407  -0.028344   4.942775   0.529251  -0.056652   0.543394
    10  C   -0.027572   0.381023   0.529251   4.914848   0.002870  -0.041764
    11  Br  -0.000335  -0.000082  -0.056652   0.002870  34.944002   0.276844
    12  C   -0.030070   0.001790   0.543394  -0.041764   0.276844   4.808546
    13  C    0.002180  -0.026191  -0.046154   0.534518   0.000136  -0.027757
    14  H   -0.000082  -0.000897   0.002143  -0.026223   0.000004   0.000192
    15  C    0.002569   0.000274  -0.048807  -0.031816  -0.058660   0.540046
    16  C    0.000117   0.001963  -0.027259  -0.042327   0.002927  -0.041686
    17  H   -0.000093   0.000009   0.002687   0.000002  -0.000163  -0.028185
    18  H    0.000000  -0.000001  -0.000006   0.000086   0.000001  -0.000027
    19  C    0.000005  -0.000100   0.000186   0.002425  -0.000100   0.001916
    20  H    0.000000   0.000002  -0.000013  -0.000061  -0.000008   0.000193
    21  N    0.000000   0.000002   0.000004  -0.000038   0.000002   0.000049
    22  H    0.000000   0.000000  -0.000001  -0.000001   0.000000   0.000005
              13         14         15         16         17         18
     1  H    0.000000   0.000000   0.000000   0.000002   0.000000   0.000000
     2  C    0.000010   0.000029  -0.000013  -0.000201   0.000000   0.000181
     3  H    0.000000   0.000000   0.000000  -0.000001   0.000000  -0.000014
     4  H   -0.000003  -0.000004   0.000003   0.000046   0.000000  -0.000004
     5  C    0.001469   0.000307  -0.000072  -0.002012   0.000006   0.000323
     6  O    0.000066   0.002181  -0.000021  -0.001325   0.000000   0.004802
     7  H    0.002180  -0.000082   0.002569   0.000117  -0.000093   0.000000
     8  H   -0.026191  -0.000897   0.000274   0.001963   0.000009  -0.000001
     9  C   -0.046154   0.002143  -0.048807  -0.027259   0.002687  -0.000006
    10  C    0.534518  -0.026223  -0.031816  -0.042327   0.000002   0.000086
    11  Br   0.000136   0.000004  -0.058660   0.002927  -0.000163   0.000001
    12  C   -0.027757   0.000192   0.540046  -0.041686  -0.028185  -0.000027
    13  C    4.924265   0.377070  -0.044064   0.554279   0.002477  -0.002348
    14  H    0.377070   0.431293   0.002184  -0.027861  -0.000090   0.001302
    15  C   -0.044064   0.002184   4.978745   0.534559   0.380205   0.002617
    16  C    0.554279  -0.027861   0.534559   4.891559  -0.033237  -0.041247
    17  H    0.002477  -0.000090   0.380205  -0.033237   0.460020   0.000041
    18  H   -0.002348   0.001302   0.002617  -0.041247   0.000041   0.443908
    19  C   -0.038146  -0.000968  -0.039234   0.329319  -0.002301   0.406173
    20  H    0.002905  -0.000022  -0.002525  -0.062520   0.001873  -0.021263
    21  N   -0.001079  -0.000485  -0.000051  -0.072954   0.000310  -0.032359
    22  H    0.000009  -0.000003   0.001157   0.001127   0.000141   0.002379
              19         20         21         22
     1  H   -0.000062   0.000001   0.003452  -0.000004
     2  C    0.003831  -0.000006  -0.117569  -0.000305
     3  H   -0.000163  -0.000002   0.003637   0.000645
     4  H   -0.000210  -0.000005   0.003715   0.000410
     5  C   -0.014868   0.002750   0.233950  -0.020456
     6  O    0.006876   0.000322  -0.104199   0.002458
     7  H    0.000005   0.000000   0.000000   0.000000
     8  H   -0.000100   0.000002   0.000002   0.000000
     9  C    0.000186  -0.000013   0.000004  -0.000001
    10  C    0.002425  -0.000061  -0.000038  -0.000001
    11  Br  -0.000100  -0.000008   0.000002   0.000000
    12  C    0.001916   0.000193   0.000049   0.000005
    13  C   -0.038146   0.002905  -0.001079   0.000009
    14  H   -0.000968  -0.000022  -0.000485  -0.000003
    15  C   -0.039234  -0.002525  -0.000051   0.001157
    16  C    0.329319  -0.062520  -0.072954   0.001127
    17  H   -0.002301   0.001873   0.000310   0.000141
    18  H    0.406173  -0.021263  -0.032359   0.002379
    19  C    4.922093   0.422269   0.182220  -0.023992
    20  H    0.422269   0.517699  -0.047600  -0.003096
    21  N    0.182220  -0.047600   7.399503   0.322509
    22  H   -0.023992  -0.003096   0.322509   0.332622
 Mulliken charges:
               1
     1  H    0.221590
     2  C   -0.578491
     3  H    0.180763
     4  H    0.186573
     5  C    0.741213
     6  O   -0.634798
     7  H    0.227477
     8  H    0.218804
     9  C   -0.194608
    10  C   -0.195246
    11  Br  -0.110785
    12  C   -0.003481
    13  C   -0.213643
    14  H    0.239929
    15  C   -0.217097
    16  C    0.036734
    17  H    0.216298
    18  H    0.235456
    19  C   -0.157168
    20  H    0.189105
    21  N   -0.773020
    22  H    0.384396
 Sum of Mulliken charges =   0.00000
 Mulliken charges with hydrogens summed into heavy atoms:
               1
     2  C    0.010435
     5  C    0.741213
     6  O   -0.634798
     9  C    0.032869
    10  C    0.023558
    11  Br  -0.110785
    12  C   -0.003481
    13  C    0.026286
    15  C   -0.000799
    16  C    0.036734
    19  C    0.267392
    21  N   -0.388624
 DipInt: DoE/N= T F RetVal/Mat= T F Init=T NMatP=  1 IDeriv=0 Min/MaxMlt=  0  4
 Entering OneElI...
 OneElI was handed  2147362583 working-precision words.
 Multipole integrals L=0 to 4 MinM= 0 MaxM= 0.
 Requested accuracy = 0.1000D-12
 ShPair: Thresh= 1.00D-13 NBox=     0 BxSize= 0.00D+00 RnKept= 1.67D+01
         NSMCal=                 2926 NSMKep=                2487
 PrsmSu:  NPrtUS=   1 ThrOK=F IAlg=1 NPAlg=1 LenDen=           0.
 Prism:   IPart=     0 DynPar=F LinDyn=F Incr=          24.
 PRISM was handed  2147136322 working-precision words and  2487 shell-pairs
 IPart=  0 NShTot=        2487 NBatch=          89 AvBLen=        27.9
 PrSmSu:  NxtVal=             25.
 Electronic moments (au):
       -114.00000000         -0.16591329         -0.88253862         -0.04017498
      -3467.35546113       -589.80927646       -221.00586307        -10.91371950
         -0.36983919         -1.72600774      -5528.91671854       -982.39088254
        -60.86902036       -288.32592822       3247.49468916       1548.63345535
       -669.52801843         73.07561743        366.21626046       -521.42406978
    -178965.00220459      -9062.67674511      -1851.78238024       3232.52334908
      10127.06674101       2741.03775801        640.38877988        448.47376263
       -218.09375130     -13707.80973152      -6879.95420079      -1297.25620379
      -4079.46175543        685.53422457       1409.05938938
 Electronic spatial extent (au):  <R**2>=           4278.1706
 DipInt: DoE/N= F T RetVal/Mat= T F Init=T NMatP=  1 IDeriv=0 Min/MaxMlt=  0  4
 Nuclear    moments (au):
        114.00000000          0.00000000          0.00000000          0.00000000
       3393.85048743        533.97635384        159.69217106          0.00000000
          0.00000000          0.00000000       5325.92960438        954.65139615
         58.94949773        254.55043907      -3334.70432125      -1577.46632498
        644.54477925        -87.86284204       -376.73921346        533.05788507
     167648.35967105       7192.30696404       1061.71887452      -3642.72041937
     -10279.80708317      -2578.31034562       -714.88379284       -413.53376119
        225.93849340      11696.67281619       5051.25830214        824.88724640
       4106.52691617       -642.26855862      -1343.75720978
 Total      moments (au):
          0.00000000         -0.16591329         -0.88253862         -0.04017498
        -73.50497371        -55.83292262        -61.31369201        -10.91371950
         -0.36983919         -1.72600774       -202.98711416        -27.73948639
         -1.91952263        -33.77548915        -87.20963209        -28.83286963
        -24.98323917        -14.78722462        -10.52295300         11.63381529
     -11316.64253354      -1870.36978107       -790.06350571       -410.19707029
       -152.74034216        162.72741239        -74.49501296         34.94000145
          7.84474209      -2011.13691533      -1828.69589865       -472.36895739
         27.06516074         43.26566595         65.30217960
 Traceless Quadrup. (au):
         -9.95444426          7.71760682          2.23683744        -10.91371950
         -0.36983919         -1.72600774
 Charge=              0.0000 electrons
 Dipole moment (field-independent basis, Debye):
    X=             -0.4217    Y=             -2.2432    Z=             -0.1021  Tot=              2.2848
 Quadrupole moment (field-independent basis, Debye-Ang):
   XX=            -98.8667   YY=            -75.0972   ZZ=            -82.4690
   XY=            -14.6793   XZ=             -0.4974   YZ=             -2.3215
 Traceless Quadrupole moment (field-independent basis, Debye-Ang):
   XX=            -13.3891   YY=             10.3804   ZZ=              3.0086
   XY=            -14.6793   XZ=             -0.4974   YZ=             -2.3215
 Octapole moment (field-independent basis, Debye-Ang**2):
  XXX=           -144.4784  YYY=            -19.7439  ZZZ=             -1.3662  XYY=            -24.0401
  XXY=            -62.0725  XXZ=            -20.5221  XZZ=            -17.7821  YZZ=            -10.5250
  YYZ=             -7.4898  XYZ=              8.2805
 Hexadecapole moment (field-independent basis, Debye-Ang**3):
 XXXX=          -4262.3899 YYYY=           -704.4709 ZZZZ=           -297.5758 XXXY=           -154.4999
 XXXZ=            -57.5293 YYYX=             61.2909 YYYZ=            -28.0584 ZZZX=             13.1601
 ZZZY=              2.9547 XXYY=           -757.4905 XXZZ=           -688.7745 YYZZ=           -177.9168
 XXYZ=             10.1940 YYXZ=             16.2959 ZZXY=             24.5959
 N-N= 8.893127187656D+02 E-N=-9.026124599883D+03  KE= 3.032988388245D+03
 Entering OneElI...
 OneElI was handed  2147385038 working-precision words.
 Calculate electrostatic properties
    NBasis =   215  MinDer = 0  MaxDer = 0
    NGrid  =    22  NMatD  =   1
 Requested accuracy = 0.1000D-12
 PrtBox:  NBox=     1 Levels=  1 BoxLen=   32.44 SMaxX=       16.51
          Shift=            6.214884            4.396964            3.681423
 Box      1 Number                   0 centers from      1 to     76:
 ShPair: Thresh= 1.00D-13 NBox=     1 BxSize= 3.24D+01 RnKept= 1.67D+01
         NSMCal=                 2926 NSMKep=                2226
 PrsmSu:  NPrtUS=   4 ThrOK=T IAlg=1 NPAlg=1 LenDen=           0.
 Prism:   IPart=     0 DynPar=F LinDyn=F Incr=         122.
 PRISM was handed   536742719 working-precision words and  2226 shell-pairs
 PRISM was handed   536742719 working-precision words and  2226 shell-pairs
 PRISM was handed   536742719 working-precision words and  2226 shell-pairs
 PRISM was handed   536742719 working-precision words and  2226 shell-pairs
 IPart=  3 NShTot=       11572 NBatch=         526 AvBLen=        22.0
 IPart=  1 NShTot=       12298 NBatch=         559 AvBLen=        22.0
 IPart=  2 NShTot=       11968 NBatch=         544 AvBLen=        22.0
 IPart=  0 NShTot=       13134 NBatch=         597 AvBLen=        22.0
 PrSmSu:  NxtVal=            489.
 --------------------------------------------------------
       Center         ----      EFG at Nuclei      ----
                      3XX-RR        3YY-RR        3ZZ-RR
 --------------------------------------------------------
     1   Atom       -0.162403      0.079744      0.082660
     2   Atom        0.021776      0.002662     -0.024437
     3   Atom        0.130401     -0.164488      0.034087
     4   Atom       -0.036306      0.131193     -0.094887
     5   Atom       -0.025177      0.238815     -0.213638
     6   Atom        0.548238     -0.787383      0.239145
     7   Atom       -0.163651      0.078699      0.084952
     8   Atom        0.148227     -0.239516      0.091289
     9   Atom        0.150806      0.066632     -0.217438
    10   Atom        0.148660      0.083624     -0.232283
    11   Atom       -3.591087      0.178279      3.412808
    12   Atom       -0.110269      0.118123     -0.007854
    13   Atom        0.136251      0.093468     -0.229719
    14   Atom       -0.176882      0.015779      0.161103
    15   Atom        0.116224      0.078489     -0.194713
    16   Atom        0.106128      0.116502     -0.222630
    17   Atom        0.147291     -0.251284      0.103993
    18   Atom        0.025665     -0.084195      0.058530
    19   Atom       -0.015893      0.072891     -0.056998
    20   Atom        0.104560     -0.024938     -0.079622
    21   Atom       -0.066449     -0.380804      0.447253
    22   Atom        0.124287     -0.304360      0.180072
 --------------------------------------------------------
                        XY            XZ            YZ
 --------------------------------------------------------
     1   Atom       -0.147892      0.148036      0.067516
     2   Atom        0.056087      0.025977     -0.043561
     3   Atom        0.089957     -0.047019      0.191917
     4   Atom       -0.064374     -0.211436     -0.081219
     5   Atom        0.143634     -0.299789      0.280678
     6   Atom       -0.536986     -1.151339      0.310055
     7   Atom        0.144199     -0.162726      0.082393
     8   Atom       -0.009009     -0.002170      0.176130
     9   Atom        0.057614      0.112507     -0.135098
    10   Atom        0.039766      0.127249     -0.170704
    11   Atom       -4.814539     -0.584289     -0.412618
    12   Atom       -0.243869      0.091193     -0.172048
    13   Atom        0.045605      0.125024     -0.176502
    14   Atom       -0.210302     -0.012013      0.004948
    15   Atom        0.073612      0.099028     -0.133897
    16   Atom        0.060899      0.102396     -0.170369
    17   Atom       -0.008883     -0.004533      0.169086
    18   Atom       -0.155473     -0.101726     -0.146339
    19   Atom        0.174818      0.135018     -0.108630
    20   Atom       -0.082076      0.106325      0.198577
    21   Atom       -0.226109      0.653073     -0.404138
    22   Atom       -0.155133      0.010865     -0.104039
 --------------------------------------------------------


 ---------------------------------------------------------------------------------
              Nuclear Quadrupole Coupling Constant in Principal Axis System
 ---------------------------------------------------------------------------------

       Atom             a.u.   MegaHertz   Gauss  10(-4) cm-1        Axes

              Baa    -6.9262   509.377   181.759   169.910  0.8240  0.5624  0.0690
    11 Br(79) Bbb     3.4516  -253.845   -90.578   -84.674 -0.4262  0.5349  0.7295
              Bcc     3.4745  -255.532   -91.180   -85.236  0.3734 -0.6305  0.6804
 
              Baa    -0.5608     2.693     0.961     0.898 -0.3762  0.7498  0.5443
    21 N(14)  Bbb    -0.4811     2.311     0.824     0.771  0.7608  0.5853 -0.2804
              Bcc     1.0419    -5.004    -1.785    -1.669  0.5288 -0.3086  0.7906
 

 ---------------------------------------------------------------------------------

 No NMR shielding tensors so no spin-rotation constants.
 Leave Link  601 at Wed Nov 29 20:06:08 2017, MaxMem=  2147483648 cpu:         0.4
 FitSet:  NAtFit=    22 NAtPot=    22 NAtFrz=     0 MDM=    26 TotChg=   0.00000
 Merz-Kollman atomic radii used.
 Atom Element Radius
    1     1    1.20
    2     6    1.50
    3     1    1.20
    4     1    1.20
    5     6    1.50
    6     8    1.40
    7     1    1.20
    8     1    1.20
    9     6    1.50
   10     6    1.50
   11    35    2.30
   12     6    1.50
   13     6    1.50
   14     1    1.20
   15     6    1.50
   16     6    1.50
   17     1    1.20
   18     1    1.20
   19     6    1.50
   20     1    1.20
   21     7    1.50
   22     1    1.20
 Generate VDW surfaces: Layer= 4 Dens= 6 Start= 1.400 Inc= 0.200

 **********************************************************************

            Electrostatic Properties Using The SCF Density

 **********************************************************************

       Atomic Center    1 is at   5.450517 -0.992554 -1.569899
       Atomic Center    2 is at   4.543025 -1.421745 -1.145446
       Atomic Center    3 is at   4.793741 -2.326773 -0.592133
       Atomic Center    4 is at   3.847362 -1.667592 -1.948125
       Atomic Center    5 is at   3.853523 -0.426228 -0.180603
       Atomic Center    6 is at   4.345194  0.685528  0.016603
       Atomic Center    7 is at  -2.581532  2.030701 -0.972444
       Atomic Center    8 is at  -0.478552  3.356414 -0.925015
       Atomic Center    9 is at  -1.690751  1.613065 -0.523471
       Atomic Center   10 is at  -0.497383  2.364032 -0.495136
       Atomic Center   11 is at  -3.288775 -0.754912 -0.112150
       Atomic Center   12 is at  -1.712794  0.309467  0.007370
       Atomic Center   13 is at   0.668172  1.820372  0.082913
       Atomic Center   14 is at   1.582059  2.398233  0.096907
       Atomic Center   15 is at  -0.549993 -0.226037  0.594953
       Atomic Center   16 is at   0.643336  0.525119  0.641995
       Atomic Center   17 is at  -0.573836 -1.229484  0.991524
       Atomic Center   18 is at   2.447675  0.735264  1.800175
       Atomic Center   19 is at   1.880343 -0.056312  1.305303
       Atomic Center   20 is at   1.536487 -0.729810  2.088355
       Atomic Center   21 is at   2.723601 -0.835747  0.409161
       Atomic Center   22 is at   2.431566 -1.796884  0.231700
      ESP Fit Center   23 is at   6.177978 -0.572554 -0.114976
      ESP Fit Center   24 is at   6.638456 -0.992554 -0.381960
      ESP Fit Center   25 is at   6.558237 -0.563421 -0.381960
      ESP Fit Center   26 is at   6.328414 -0.192244 -0.381960
      ESP Fit Center   27 is at   6.558237 -1.421687 -0.381960
      ESP Fit Center   28 is at   6.905439 -0.992554 -0.729899
      ESP Fit Center   29 is at   6.840801 -0.563708 -0.729899
      ESP Fit Center   30 is at   6.652630 -0.172967 -0.729899
      ESP Fit Center   31 is at   6.357646  0.144950 -0.729899
      ESP Fit Center   32 is at   6.652630 -1.812141 -0.729899
      ESP Fit Center   33 is at   6.840801 -1.421400 -0.729899
      ESP Fit Center   34 is at   7.073272 -0.992554 -1.135083
      ESP Fit Center   35 is at   7.017978 -0.572554 -1.135083
      ESP Fit Center   36 is at   6.855864 -0.181176 -1.135083
      ESP Fit Center   37 is at   6.597978  0.154907 -1.135083
      ESP Fit Center   38 is at   6.261894  0.412793 -1.135083
      ESP Fit Center   39 is at   6.597978 -2.140015 -1.135083
      ESP Fit Center   40 is at   6.855864 -1.803932 -1.135083
      ESP Fit Center   41 is at   7.017978 -1.412554 -1.135083
      ESP Fit Center   42 is at   7.130517 -0.992554 -1.569899
      ESP Fit Center   43 is at   7.077736 -0.574755 -1.569899
      ESP Fit Center   44 is at   6.922712 -0.183208 -1.569899
      ESP Fit Center   45 is at   6.675184  0.157485 -1.569899
      ESP Fit Center   46 is at   6.350706  0.425917 -1.569899
      ESP Fit Center   47 is at   5.969665  0.605221 -1.569899
      ESP Fit Center   48 is at   5.556005  0.684131 -1.569899
      ESP Fit Center   49 is at   6.350706 -2.411025 -1.569899
      ESP Fit Center   50 is at   6.675184 -2.142593 -1.569899
      ESP Fit Center   51 is at   6.922712 -1.801900 -1.569899
      ESP Fit Center   52 is at   7.077736 -1.410353 -1.569899
      ESP Fit Center   53 is at   7.073272 -0.992554 -2.004715
      ESP Fit Center   54 is at   7.017978 -0.572554 -2.004715
      ESP Fit Center   55 is at   6.855864 -0.181176 -2.004715
      ESP Fit Center   56 is at   6.597978  0.154907 -2.004715
      ESP Fit Center   57 is at   6.261894  0.412793 -2.004715
      ESP Fit Center   58 is at   5.870517  0.574907 -2.004715
      ESP Fit Center   59 is at   5.450517  0.630201 -2.004715
      ESP Fit Center   60 is at   5.030517  0.574907 -2.004715
      ESP Fit Center   61 is at   6.261894 -2.397901 -2.004715
      ESP Fit Center   62 is at   6.597978 -2.140015 -2.004715
      ESP Fit Center   63 is at   6.855864 -1.803932 -2.004715
      ESP Fit Center   64 is at   7.017978 -1.412554 -2.004715
      ESP Fit Center   65 is at   6.905439 -0.992554 -2.409899
      ESP Fit Center   66 is at   6.840801 -0.563708 -2.409899
      ESP Fit Center   67 is at   6.652630 -0.172967 -2.409899
      ESP Fit Center   68 is at   6.357646  0.144950 -2.409899
      ESP Fit Center   69 is at   5.982060  0.361795 -2.409899
      ESP Fit Center   70 is at   5.559243  0.458300 -2.409899
      ESP Fit Center   71 is at   5.126766  0.425891 -2.409899
      ESP Fit Center   72 is at   4.723055  0.267446 -2.409899
      ESP Fit Center   73 is at   5.982060 -2.346903 -2.409899
      ESP Fit Center   74 is at   6.357646 -2.130058 -2.409899
      ESP Fit Center   75 is at   6.652630 -1.812141 -2.409899
      ESP Fit Center   76 is at   6.840801 -1.421400 -2.409899
      ESP Fit Center   77 is at   6.638456 -0.992554 -2.757839
      ESP Fit Center   78 is at   6.558237 -0.563421 -2.757839
      ESP Fit Center   79 is at   6.328414 -0.192244 -2.757839
      ESP Fit Center   80 is at   5.980027  0.070846 -2.757839
      ESP Fit Center   81 is at   5.560126  0.190318 -2.757839
      ESP Fit Center   82 is at   5.125422  0.150037 -2.757839
      ESP Fit Center   83 is at   4.734623 -0.044558 -2.757839
      ESP Fit Center   84 is at   5.980027 -2.055954 -2.757839
      ESP Fit Center   85 is at   6.328414 -1.792864 -2.757839
      ESP Fit Center   86 is at   6.558237 -1.421687 -2.757839
      ESP Fit Center   87 is at   6.290517 -0.992554 -3.024822
      ESP Fit Center   88 is at   6.177978 -0.572554 -3.024822
      ESP Fit Center   89 is at   5.870517 -0.265093 -3.024822
      ESP Fit Center   90 is at   5.450517 -0.152554 -3.024822
      ESP Fit Center   91 is at   5.030517 -0.265093 -3.024822
      ESP Fit Center   92 is at   5.450517 -1.832554 -3.024822
      ESP Fit Center   93 is at   5.870517 -1.720015 -3.024822
      ESP Fit Center   94 is at   6.177978 -1.412554 -3.024822
      ESP Fit Center   95 is at   5.885333 -0.992554 -3.192655
      ESP Fit Center   96 is at   5.667925 -0.615992 -3.192655
      ESP Fit Center   97 is at   5.233109 -0.615992 -3.192655
      ESP Fit Center   98 is at   5.015701 -0.992554 -3.192655
      ESP Fit Center   99 is at   5.233109 -1.369116 -3.192655
      ESP Fit Center  100 is at   5.667925 -1.369116 -3.192655
      ESP Fit Center  101 is at   5.450517 -0.992554 -3.249899
      ESP Fit Center  102 is at   5.709723 -1.421745  0.600640
      ESP Fit Center  103 is at   6.027950 -1.421745  0.339478
      ESP Fit Center  104 is at   5.967800 -1.003394  0.339478
      ESP Fit Center  105 is at   6.289112 -1.421745  0.021251
      ESP Fit Center  106 is at   6.238373 -1.003879  0.021251
      ESP Fit Center  107 is at   6.089108 -0.610299  0.021251
      ESP Fit Center  108 is at   6.437813 -1.838819 -0.341811
      ESP Fit Center  109 is at   3.282302 -3.050466 -0.735756
      ESP Fit Center  110 is at   3.376328 -3.167831 -1.145446
      ESP Fit Center  111 is at   6.233510 -2.598357 -1.555136
      ESP Fit Center  112 is at   4.648063  0.515556 -1.949081
      ESP Fit Center  113 is at   4.229145 -3.336334 -1.949081
      ESP Fit Center  114 is at   4.648063 -3.359047 -1.949081
      ESP Fit Center  115 is at   5.062070 -3.291174 -1.949081
      ESP Fit Center  116 is at   5.451807 -3.135888 -1.949081
      ESP Fit Center  117 is at   5.799050 -2.900452 -1.949081
      ESP Fit Center  118 is at   6.087563 -2.595872 -1.949081
      ESP Fit Center  119 is at   4.332558  0.311610 -2.312144
      ESP Fit Center  120 is at   3.923855  0.210874 -2.312144
      ESP Fit Center  121 is at   3.551135  0.015256 -2.312144
      ESP Fit Center  122 is at   4.753493 -3.155100 -2.312144
      ESP Fit Center  123 is at   5.162196 -3.054364 -2.312144
      ESP Fit Center  124 is at   5.534915 -2.858746 -2.312144
      ESP Fit Center  125 is at   5.849990 -2.579615 -2.312144
      ESP Fit Center  126 is at   4.331699  0.048065 -2.630370
      ESP Fit Center  127 is at   3.926166 -0.071011 -2.630370
      ESP Fit Center  128 is at   5.159885 -2.772480 -2.630370
      ESP Fit Center  129 is at   5.515444 -2.543976 -2.630370
      ESP Fit Center  130 is at   4.650675 -0.260025 -2.891532
      ESP Fit Center  131 is at   4.223743 -0.299586 -2.891532
      ESP Fit Center  132 is at   5.063067 -2.466130 -2.891532
      ESP Fit Center  133 is at   5.405225 -2.207744 -2.891532
      ESP Fit Center  134 is at   4.543025 -0.618110 -3.085593
      ESP Fit Center  135 is at   5.238994 -1.823563 -3.085593
      ESP Fit Center  136 is at   4.952715 -1.421745 -3.205095
      ESP Fit Center  137 is at   4.793741 -2.326773  1.087867
      ESP Fit Center  138 is at   5.228557 -2.326773  1.030622
      ESP Fit Center  139 is at   5.011149 -1.950211  1.030622
      ESP Fit Center  140 is at   4.358925 -2.326773  1.030622
      ESP Fit Center  141 is at   4.576333 -2.703335  1.030622
      ESP Fit Center  142 is at   5.011149 -2.703335  1.030622
      ESP Fit Center  143 is at   5.633741 -2.326773  0.862790
      ESP Fit Center  144 is at   5.521203 -1.906773  0.862790
      ESP Fit Center  145 is at   4.066280 -2.746773  0.862790
      ESP Fit Center  146 is at   4.373741 -3.054234  0.862790
      ESP Fit Center  147 is at   4.793741 -3.166773  0.862790
      ESP Fit Center  148 is at   5.213741 -3.054234  0.862790
      ESP Fit Center  149 is at   5.521203 -2.746773  0.862790
      ESP Fit Center  150 is at   5.981681 -2.326773  0.595806
      ESP Fit Center  151 is at   5.901462 -1.897640  0.595806
      ESP Fit Center  152 is at   3.783735 -2.952142  0.595806
      ESP Fit Center  153 is at   4.077848 -3.274769  0.595806
      ESP Fit Center  154 is at   4.468646 -3.469364  0.595806
      ESP Fit Center  155 is at   4.903350 -3.509645  0.595806
      ESP Fit Center  156 is at   5.323251 -3.390173  0.595806
      ESP Fit Center  157 is at   5.671639 -3.127083  0.595806
      ESP Fit Center  158 is at   5.901462 -2.755906  0.595806
      ESP Fit Center  159 is at   6.248664 -2.326773  0.247867
      ESP Fit Center  160 is at   6.184026 -1.897927  0.247867
      ESP Fit Center  161 is at   3.727207 -3.316372  0.247867
      ESP Fit Center  162 is at   4.066280 -3.586773  0.247867
      ESP Fit Center  163 is at   4.469990 -3.745218  0.247867
      ESP Fit Center  164 is at   4.902468 -3.777627  0.247867
      ESP Fit Center  165 is at   5.325284 -3.681122  0.247867
      ESP Fit Center  166 is at   5.700871 -3.464277  0.247867
      ESP Fit Center  167 is at   5.995855 -3.146360  0.247867
      ESP Fit Center  168 is at   6.184026 -2.755619  0.247867
      ESP Fit Center  169 is at   6.416497 -2.326773 -0.157317
      ESP Fit Center  170 is at   6.361203 -1.906773 -0.157317
      ESP Fit Center  171 is at   3.388394 -3.138151 -0.157317
      ESP Fit Center  172 is at   3.646280 -3.474234 -0.157317
      ESP Fit Center  173 is at   3.982364 -3.732120 -0.157317
      ESP Fit Center  174 is at   4.373741 -3.894234 -0.157317
      ESP Fit Center  175 is at   4.793741 -3.949528 -0.157317
      ESP Fit Center  176 is at   5.213741 -3.894234 -0.157317
      ESP Fit Center  177 is at   5.605119 -3.732120 -0.157317
      ESP Fit Center  178 is at   5.941203 -3.474234 -0.157317
      ESP Fit Center  179 is at   6.199089 -3.138151 -0.157317
      ESP Fit Center  180 is at   6.361203 -2.746773 -0.157317
      ESP Fit Center  181 is at   6.473741 -2.326773 -0.592133
      ESP Fit Center  182 is at   3.434593 -3.314252 -0.592133
      ESP Fit Center  183 is at   3.722869 -3.621235 -0.592133
      ESP Fit Center  184 is at   4.078432 -3.846882 -0.592133
      ESP Fit Center  185 is at   4.478941 -3.977016 -0.592133
      ESP Fit Center  186 is at   4.899229 -4.003458 -0.592133
      ESP Fit Center  187 is at   5.312890 -3.924548 -0.592133
      ESP Fit Center  188 is at   5.693930 -3.745244 -0.592133
      ESP Fit Center  189 is at   6.018408 -3.476812 -0.592133
      ESP Fit Center  190 is at   6.265936 -3.136119 -0.592133
      ESP Fit Center  191 is at   6.420961 -2.744572 -0.592133
      ESP Fit Center  192 is at   3.646280 -3.474234 -1.026949
      ESP Fit Center  193 is at   3.982364 -3.732120 -1.026949
      ESP Fit Center  194 is at   4.373741 -3.894234 -1.026949
      ESP Fit Center  195 is at   4.793741 -3.949528 -1.026949
      ESP Fit Center  196 is at   5.213741 -3.894234 -1.026949
      ESP Fit Center  197 is at   5.605119 -3.732120 -1.026949
      ESP Fit Center  198 is at   5.941203 -3.474234 -1.026949
      ESP Fit Center  199 is at   6.199089 -3.138151 -1.026949
      ESP Fit Center  200 is at   6.361203 -2.746773 -1.026949
      ESP Fit Center  201 is at   4.066280 -3.586773 -1.432133
      ESP Fit Center  202 is at   4.469990 -3.745218 -1.432133
      ESP Fit Center  203 is at   4.902468 -3.777627 -1.432133
      ESP Fit Center  204 is at   5.325284 -3.681122 -1.432133
      ESP Fit Center  205 is at   5.700871 -3.464277 -1.432133
      ESP Fit Center  206 is at   5.995855 -3.146360 -1.432133
      ESP Fit Center  207 is at   6.184026 -2.755619 -1.432133
      ESP Fit Center  208 is at   4.468646 -3.469364 -1.780072
      ESP Fit Center  209 is at   4.903350 -3.509645 -1.780072
      ESP Fit Center  210 is at   5.323251 -3.390173 -1.780072
      ESP Fit Center  211 is at   5.671639 -3.127083 -1.780072
      ESP Fit Center  212 is at   2.224607 -1.667592 -1.513309
      ESP Fit Center  213 is at   2.279901 -2.087592 -1.513309
      ESP Fit Center  214 is at   2.442015 -2.478970 -1.513309
      ESP Fit Center  215 is at   2.699901 -2.815054 -1.513309
      ESP Fit Center  216 is at   3.035985 -3.072940 -1.513309
      ESP Fit Center  217 is at   3.427362 -3.235054 -1.513309
      ESP Fit Center  218 is at   2.488214 -0.680113 -1.948125
      ESP Fit Center  219 is at   2.285338 -1.049143 -1.948125
      ESP Fit Center  220 is at   2.180610 -1.457033 -1.948125
      ESP Fit Center  221 is at   2.180610 -1.878152 -1.948125
      ESP Fit Center  222 is at   2.285338 -2.286042 -1.948125
      ESP Fit Center  223 is at   2.488214 -2.655072 -1.948125
      ESP Fit Center  224 is at   2.776490 -2.962055 -1.948125
      ESP Fit Center  225 is at   3.132053 -3.187702 -1.948125
      ESP Fit Center  226 is at   3.532562 -3.317835 -1.948125
      ESP Fit Center  227 is at   3.952851 -3.344277 -1.948125
      ESP Fit Center  228 is at   3.427362 -0.100131 -2.382941
      ESP Fit Center  229 is at   3.035985 -0.262245 -2.382941
      ESP Fit Center  230 is at   2.699901 -0.520131 -2.382941
      ESP Fit Center  231 is at   2.442015 -0.856215 -2.382941
      ESP Fit Center  232 is at   2.279901 -1.247592 -2.382941
      ESP Fit Center  233 is at   2.224607 -1.667592 -2.382941
      ESP Fit Center  234 is at   2.279901 -2.087592 -2.382941
      ESP Fit Center  235 is at   2.442015 -2.478970 -2.382941
      ESP Fit Center  236 is at   2.699901 -2.815054 -2.382941
      ESP Fit Center  237 is at   3.035985 -3.072940 -2.382941
      ESP Fit Center  238 is at   3.427362 -3.235054 -2.382941
      ESP Fit Center  239 is at   3.847362 -3.290348 -2.382941
      ESP Fit Center  240 is at   4.267362 -3.235054 -2.382941
      ESP Fit Center  241 is at   3.956089 -0.216738 -2.788125
      ESP Fit Center  242 is at   3.523612 -0.249148 -2.788125
      ESP Fit Center  243 is at   3.119901 -0.407592 -2.788125
      ESP Fit Center  244 is at   2.780829 -0.677994 -2.788125
      ESP Fit Center  245 is at   2.536522 -1.036325 -2.788125
      ESP Fit Center  246 is at   2.408690 -1.450747 -2.788125
      ESP Fit Center  247 is at   2.408690 -1.884437 -2.788125
      ESP Fit Center  248 is at   2.536522 -2.298860 -2.788125
      ESP Fit Center  249 is at   2.780829 -2.657191 -2.788125
      ESP Fit Center  250 is at   3.119901 -2.927592 -2.788125
      ESP Fit Center  251 is at   3.523612 -3.086037 -2.788125
      ESP Fit Center  252 is at   3.956089 -3.118447 -2.788125
      ESP Fit Center  253 is at   4.378905 -3.021942 -2.788125
      ESP Fit Center  254 is at   4.754492 -2.805097 -2.788125
      ESP Fit Center  255 is at   4.376873 -0.604193 -3.136064
      ESP Fit Center  256 is at   3.956972 -0.484720 -3.136064
      ESP Fit Center  257 is at   3.522267 -0.525002 -3.136064
      ESP Fit Center  258 is at   3.131469 -0.719596 -3.136064
      ESP Fit Center  259 is at   2.837356 -1.042223 -3.136064
      ESP Fit Center  260 is at   2.679650 -1.449309 -3.136064
      ESP Fit Center  261 is at   2.679650 -1.885876 -3.136064
      ESP Fit Center  262 is at   2.837356 -2.292962 -3.136064
      ESP Fit Center  263 is at   3.131469 -2.615588 -3.136064
      ESP Fit Center  264 is at   3.522267 -2.810183 -3.136064
      ESP Fit Center  265 is at   3.956972 -2.850464 -3.136064
      ESP Fit Center  266 is at   4.376873 -2.730992 -3.136064
      ESP Fit Center  267 is at   4.725260 -2.467902 -3.136064
      ESP Fit Center  268 is at   4.955083 -2.096726 -3.136064
      ESP Fit Center  269 is at   4.687362 -1.667592 -3.403048
      ESP Fit Center  270 is at   4.574824 -1.247592 -3.403048
      ESP Fit Center  271 is at   4.267362 -0.940131 -3.403048
      ESP Fit Center  272 is at   3.847362 -0.827592 -3.403048
      ESP Fit Center  273 is at   3.427362 -0.940131 -3.403048
      ESP Fit Center  274 is at   3.119901 -1.247592 -3.403048
      ESP Fit Center  275 is at   3.007362 -1.667592 -3.403048
      ESP Fit Center  276 is at   3.119901 -2.087592 -3.403048
      ESP Fit Center  277 is at   3.427362 -2.395054 -3.403048
      ESP Fit Center  278 is at   3.847362 -2.507592 -3.403048
      ESP Fit Center  279 is at   4.267362 -2.395054 -3.403048
      ESP Fit Center  280 is at   4.574824 -2.087592 -3.403048
      ESP Fit Center  281 is at   4.282178 -1.667592 -3.570880
      ESP Fit Center  282 is at   4.064770 -1.291031 -3.570880
      ESP Fit Center  283 is at   3.629954 -1.291031 -3.570880
      ESP Fit Center  284 is at   3.412546 -1.667592 -3.570880
      ESP Fit Center  285 is at   3.629954 -2.044154 -3.570880
      ESP Fit Center  286 is at   4.064770 -2.044154 -3.570880
      ESP Fit Center  287 is at   3.847362 -1.667592 -3.628125
      ESP Fit Center  288 is at   4.263213 -0.426228  1.879046
      ESP Fit Center  289 is at   4.058368 -0.071427  1.879046
      ESP Fit Center  290 is at   4.657158 -0.426228  1.759544
      ESP Fit Center  291 is at   4.549491 -0.828046  1.759544
      ESP Fit Center  292 is at   5.020220 -0.426228  1.565483
      ESP Fit Center  293 is at   4.373565 -1.470613  1.565483
      ESP Fit Center  294 is at   4.715723 -1.212227  1.565483
      ESP Fit Center  295 is at   4.941436 -0.847688  1.565483
      ESP Fit Center  296 is at   5.338447 -0.426228  1.304321
      ESP Fit Center  297 is at   4.470383 -1.776963  1.304321
      ESP Fit Center  298 is at   4.825941 -1.548459  1.304321
      ESP Fit Center  299 is at   5.102721 -1.229039  1.304321
      ESP Fit Center  300 is at   5.278297 -0.844580  1.304321
      ESP Fit Center  301 is at   5.160487 -1.584098  0.986095
      ESP Fit Center  302 is at   5.399605 -1.237675  0.986095
      ESP Fit Center  303 is at   5.548871 -0.844094  0.986095
      ESP Fit Center  304 is at   5.748310 -0.843303  0.623032
      ESP Fit Center  305 is at   2.444985  0.908010 -0.984238
      ESP Fit Center  306 is at   2.861633  1.010772 -1.347300
      ESP Fit Center  307 is at   2.546559  0.731641 -1.347300
      ESP Fit Center  308 is at   2.307440  0.385218 -1.347300
      ESP Fit Center  309 is at   3.236663  0.924506 -1.665527
      ESP Fit Center  310 is at   2.881104  0.696002 -1.665527
      ESP Fit Center  311 is at   2.604325  0.376582 -1.665527
      ESP Fit Center  312 is at   2.428749 -0.007877 -1.665527
      ESP Fit Center  313 is at   2.368599 -0.426228 -1.665527
      ESP Fit Center  314 is at   3.961172  0.735492 -1.926689
      ESP Fit Center  315 is at   3.534241  0.695931 -1.926689
      ESP Fit Center  316 is at   3.150431  0.504816 -1.926689
      ESP Fit Center  317 is at   2.861577  0.187959 -1.926689
      ESP Fit Center  318 is at   2.706691 -0.211848 -1.926689
      ESP Fit Center  319 is at   3.853523  0.377407 -2.120750
      ESP Fit Center  320 is at   3.451705  0.269740 -2.120750
      ESP Fit Center  321 is at   3.157554 -0.024411 -2.120750
      ESP Fit Center  322 is at   4.345194  0.685528  1.976603
      ESP Fit Center  323 is at   4.752701  0.685528  1.933773
      ESP Fit Center  324 is at   4.548948  1.038440  1.933773
      ESP Fit Center  325 is at   4.141441  1.038440  1.933773
      ESP Fit Center  326 is at   4.141441  0.332617  1.933773
      ESP Fit Center  327 is at   4.548948  0.332617  1.933773
      ESP Fit Center  328 is at   5.142398  0.685528  1.807153
      ESP Fit Center  329 is at   5.035593  1.084130  1.807153
      ESP Fit Center  330 is at   4.743796  1.375927  1.807153
      ESP Fit Center  331 is at   4.345194  1.482732  1.807153
      ESP Fit Center  332 is at   4.743796 -0.004870  1.807153
      ESP Fit Center  333 is at   5.035593  0.286926  1.807153
      ESP Fit Center  334 is at   5.497253  0.685528  1.602277
      ESP Fit Center  335 is at   5.419457  1.101700  1.602277
      ESP Fit Center  336 is at   5.196576  1.461665  1.602277
      ESP Fit Center  337 is at   4.858711  1.716809  1.602277
      ESP Fit Center  338 is at   4.451493  1.832673  1.602277
      ESP Fit Center  339 is at   4.029918  1.793608  1.602277
      ESP Fit Center  340 is at   5.196576 -0.090609  1.602277
      ESP Fit Center  341 is at   5.419457  0.269357  1.602277
      ESP Fit Center  342 is at   5.801758  0.685528  1.328099
      ESP Fit Center  343 is at   5.742757  1.095890  1.328099
      ESP Fit Center  344 is at   5.570534  1.473006  1.328099
      ESP Fit Center  345 is at   5.299041  1.786326  1.328099
      ESP Fit Center  346 is at   4.950273  2.010465  1.328099
      ESP Fit Center  347 is at   4.552485  2.127266  1.328099
      ESP Fit Center  348 is at   4.137904  2.127266  1.328099
      ESP Fit Center  349 is at   3.740116  2.010465  1.328099
      ESP Fit Center  350 is at   5.570534 -0.101950  1.328099
      ESP Fit Center  351 is at   5.742757  0.275167  1.328099
      ESP Fit Center  352 is at   6.042604  0.685528  0.996603
      ESP Fit Center  353 is at   5.989277  1.107657  0.996603
      ESP Fit Center  354 is at   5.832646  1.503262  0.996603
      ESP Fit Center  355 is at   5.582553  1.847485  0.996603
      ESP Fit Center  356 is at   5.254712  2.118699  0.996603
      ESP Fit Center  357 is at   4.869723  2.299861  0.996603
      ESP Fit Center  358 is at   4.451776  2.379589  0.996603
      ESP Fit Center  359 is at   4.027131  2.352872  0.996603
      ESP Fit Center  360 is at   3.622472  2.221391  0.996603
      ESP Fit Center  361 is at   3.263225  1.993405  0.996603
      ESP Fit Center  362 is at   5.832646 -0.132205  0.996603
      ESP Fit Center  363 is at   5.989277  0.263400  0.996603
      ESP Fit Center  364 is at   6.209265  0.685528  0.622277
      ESP Fit Center  365 is at   6.162529  1.100323  0.622277
      ESP Fit Center  366 is at   6.024664  1.494318  0.622277
      ESP Fit Center  367 is at   5.802584  1.847757  0.622277
      ESP Fit Center  368 is at   5.507423  2.142917  0.622277
      ESP Fit Center  369 is at   5.153984  2.364998  0.622277
      ESP Fit Center  370 is at   4.759989  2.502863  0.622277
      ESP Fit Center  371 is at   4.345194  2.549599  0.622277
      ESP Fit Center  372 is at   3.930400  2.502863  0.622277
      ESP Fit Center  373 is at   3.536404  2.364998  0.622277
      ESP Fit Center  374 is at   3.182965  2.142917  0.622277
      ESP Fit Center  375 is at   5.802584 -0.476701  0.622277
      ESP Fit Center  376 is at   6.024664 -0.123262  0.622277
      ESP Fit Center  377 is at   6.162529  0.270734  0.622277
      ESP Fit Center  378 is at   6.294457  0.685528  0.221479
      ESP Fit Center  379 is at   6.248885  1.104562  0.221479
      ESP Fit Center  380 is at   6.114297  1.504003  0.221479
      ESP Fit Center  381 is at   5.896989  1.865172  0.221479
      ESP Fit Center  382 is at   5.607120  2.171183  0.221479
      ESP Fit Center  383 is at   5.258245  2.407726  0.221479
      ESP Fit Center  384 is at   4.866677  2.563741  0.221479
      ESP Fit Center  385 is at   4.450725  2.631932  0.221479
      ESP Fit Center  386 is at   4.029839  2.609113  0.221479
      ESP Fit Center  387 is at   3.623698  2.496348  0.221479
      ESP Fit Center  388 is at   6.114297 -0.132946  0.221479
      ESP Fit Center  389 is at   6.248885  0.266494  0.221479
      ESP Fit Center  390 is at   6.294457  0.685528 -0.188272
      ESP Fit Center  391 is at   6.248885  1.104562 -0.188272
      ESP Fit Center  392 is at   6.114297  1.504003 -0.188272
      ESP Fit Center  393 is at   5.896989  1.865172 -0.188272
      ESP Fit Center  394 is at   5.607120  2.171183 -0.188272
      ESP Fit Center  395 is at   5.258245  2.407726 -0.188272
      ESP Fit Center  396 is at   4.866677  2.563741 -0.188272
      ESP Fit Center  397 is at   4.450725  2.631932 -0.188272
      ESP Fit Center  398 is at   4.029839  2.609113 -0.188272
      ESP Fit Center  399 is at   3.623698  2.496348 -0.188272
      ESP Fit Center  400 is at   3.251293  2.298912 -0.188272
      ESP Fit Center  401 is at   6.114297 -0.132946 -0.188272
      ESP Fit Center  402 is at   6.248885  0.266494 -0.188272
      ESP Fit Center  403 is at   6.209265  0.685528 -0.589070
      ESP Fit Center  404 is at   6.162529  1.100323 -0.589070
      ESP Fit Center  405 is at   6.024664  1.494318 -0.589070
      ESP Fit Center  406 is at   5.802584  1.847757 -0.589070
      ESP Fit Center  407 is at   5.507423  2.142917 -0.589070
      ESP Fit Center  408 is at   5.153984  2.364998 -0.589070
      ESP Fit Center  409 is at   4.759989  2.502863 -0.589070
      ESP Fit Center  410 is at   4.345194  2.549599 -0.589070
      ESP Fit Center  411 is at   3.930400  2.502863 -0.589070
      ESP Fit Center  412 is at   3.536404  2.364998 -0.589070
      ESP Fit Center  413 is at   3.182965  2.142917 -0.589070
      ESP Fit Center  414 is at   6.162529  0.270734 -0.589070
      ESP Fit Center  415 is at   6.042604  0.685528 -0.963397
      ESP Fit Center  416 is at   5.989277  1.107657 -0.963397
      ESP Fit Center  417 is at   5.832646  1.503262 -0.963397
      ESP Fit Center  418 is at   5.582553  1.847485 -0.963397
      ESP Fit Center  419 is at   5.254712  2.118699 -0.963397
      ESP Fit Center  420 is at   4.869723  2.299861 -0.963397
      ESP Fit Center  421 is at   4.451776  2.379589 -0.963397
      ESP Fit Center  422 is at   4.027131  2.352872 -0.963397
      ESP Fit Center  423 is at   3.622472  2.221391 -0.963397
      ESP Fit Center  424 is at   3.263225  1.993405 -0.963397
      ESP Fit Center  425 is at   2.971961  1.683241 -0.963397
      ESP Fit Center  426 is at   2.766983  1.310386 -0.963397
      ESP Fit Center  427 is at   5.801758  0.685528 -1.294893
      ESP Fit Center  428 is at   5.742757  1.095890 -1.294893
      ESP Fit Center  429 is at   5.570534  1.473006 -1.294893
      ESP Fit Center  430 is at   5.299041  1.786326 -1.294893
      ESP Fit Center  431 is at   4.950273  2.010465 -1.294893
      ESP Fit Center  432 is at   4.552485  2.127266 -1.294893
      ESP Fit Center  433 is at   4.137904  2.127266 -1.294893
      ESP Fit Center  434 is at   3.740116  2.010465 -1.294893
      ESP Fit Center  435 is at   3.391348  1.786326 -1.294893
      ESP Fit Center  436 is at   3.119855  1.473006 -1.294893
      ESP Fit Center  437 is at   5.419457  1.101700 -1.569070
      ESP Fit Center  438 is at   5.196576  1.461665 -1.569070
      ESP Fit Center  439 is at   4.858711  1.716809 -1.569070
      ESP Fit Center  440 is at   4.451493  1.832673 -1.569070
      ESP Fit Center  441 is at   4.029918  1.793608 -1.569070
      ESP Fit Center  442 is at   3.650924  1.604891 -1.569070
      ESP Fit Center  443 is at   3.365694  1.292009 -1.569070
      ESP Fit Center  444 is at   5.142398  0.685528 -1.773946
      ESP Fit Center  445 is at   5.035593  1.084130 -1.773946
      ESP Fit Center  446 is at   4.743796  1.375927 -1.773946
      ESP Fit Center  447 is at   4.345194  1.482732 -1.773946
      ESP Fit Center  448 is at   3.946592  1.375927 -1.773946
      ESP Fit Center  449 is at   3.654796  1.084130 -1.773946
      ESP Fit Center  450 is at   4.752701  0.685528 -1.900566
      ESP Fit Center  451 is at   4.548948  1.038440 -1.900566
      ESP Fit Center  452 is at   4.141441  1.038440 -1.900566
      ESP Fit Center  453 is at   4.345194  0.685528 -1.943397
      ESP Fit Center  454 is at  -2.906627  3.173291  0.215495
      ESP Fit Center  455 is at  -3.297425  2.978697  0.215495
      ESP Fit Center  456 is at  -3.591538  2.656070  0.215495
      ESP Fit Center  457 is at  -2.905282  3.449145 -0.132444
      ESP Fit Center  458 is at  -3.308993  3.290701 -0.132444
      ESP Fit Center  459 is at  -3.648065  3.020299 -0.132444
      ESP Fit Center  460 is at  -3.892372  2.661968 -0.132444
      ESP Fit Center  461 is at  -2.581532  3.653456 -0.537628
      ESP Fit Center  462 is at  -3.001532  3.598162 -0.537628
      ESP Fit Center  463 is at  -3.392909  3.436048 -0.537628
      ESP Fit Center  464 is at  -3.728993  3.178162 -0.537628
      ESP Fit Center  465 is at  -3.986879  2.842078 -0.537628
      ESP Fit Center  466 is at  -4.148993  2.450701 -0.537628
      ESP Fit Center  467 is at  -2.476043  3.707385 -0.972444
      ESP Fit Center  468 is at  -2.896332  3.680943 -0.972444
      ESP Fit Center  469 is at  -3.296841  3.550810 -0.972444
      ESP Fit Center  470 is at  -3.652404  3.325163 -0.972444
      ESP Fit Center  471 is at  -3.940680  3.018180 -0.972444
      ESP Fit Center  472 is at  -4.143556  2.649150 -0.972444
      ESP Fit Center  473 is at  -4.248284  2.241260 -0.972444
      ESP Fit Center  474 is at  -2.161532  3.598162 -1.407260
      ESP Fit Center  475 is at  -2.581532  3.653456 -1.407260
      ESP Fit Center  476 is at  -3.001532  3.598162 -1.407260
      ESP Fit Center  477 is at  -3.392909  3.436048 -1.407260
      ESP Fit Center  478 is at  -3.728993  3.178162 -1.407260
      ESP Fit Center  479 is at  -3.986879  2.842078 -1.407260
      ESP Fit Center  480 is at  -4.148993  2.450701 -1.407260
      ESP Fit Center  481 is at  -2.049989  3.385050 -1.812444
      ESP Fit Center  482 is at  -2.472805  3.481555 -1.812444
      ESP Fit Center  483 is at  -2.905282  3.449145 -1.812444
      ESP Fit Center  484 is at  -3.308993  3.290701 -1.812444
      ESP Fit Center  485 is at  -3.648065  3.020299 -1.812444
      ESP Fit Center  486 is at  -3.892372  2.661968 -1.812444
      ESP Fit Center  487 is at  -4.020204  2.247545 -1.812444
      ESP Fit Center  488 is at  -2.052021  3.094100 -2.160384
      ESP Fit Center  489 is at  -2.471922  3.213572 -2.160384
      ESP Fit Center  490 is at  -2.906627  3.173291 -2.160384
      ESP Fit Center  491 is at  -3.297425  2.978697 -2.160384
      ESP Fit Center  492 is at  -3.591538  2.656070 -2.160384
      ESP Fit Center  493 is at  -3.749244  2.248984 -2.160384
      ESP Fit Center  494 is at  -3.749244  1.812417 -2.160384
      ESP Fit Center  495 is at  -2.161532  2.758162 -2.427367
      ESP Fit Center  496 is at  -2.581532  2.870701 -2.427367
      ESP Fit Center  497 is at  -3.001532  2.758162 -2.427367
      ESP Fit Center  498 is at  -3.308993  2.450701 -2.427367
      ESP Fit Center  499 is at  -3.421532  2.030701 -2.427367
      ESP Fit Center  500 is at  -3.308993  1.610701 -2.427367
      ESP Fit Center  501 is at  -2.146716  2.030701 -2.595200
      ESP Fit Center  502 is at  -2.364124  2.407262 -2.595200
      ESP Fit Center  503 is at  -2.798939  2.407262 -2.595200
      ESP Fit Center  504 is at  -3.016347  2.030701 -2.595200
[...]
 7716 Fit       0.001504
 7717 Fit       0.002348
 7718 Fit       0.002640
 7719 Fit       0.002406
 7720 Fit       0.001777
 7721 Fit       0.000923
 7722 Fit       0.000001
 7723 Fit      -0.000880
 7724 Fit      -0.001653
 7725 Fit      -0.002286
 7726 Fit      -0.002770
 7727 Fit      -0.003110
 7728 Fit      -0.003323
 7729 Fit      -0.003427
 7730 Fit      -0.003447
 7731 Fit      -0.003405
 7732 Fit      -0.003326
 7733 Fit      -0.003229
 7734 Fit      -0.003130
 7735 Fit      -0.003043
 7736 Fit      -0.002972
 7737 Fit      -0.002920
 7738 Fit      -0.002880
 7739 Fit      -0.002843
 7740 Fit      -0.002793
 7741 Fit      -0.002713
 7742 Fit      -0.002582
 7743 Fit      -0.002381
 7744 Fit      -0.002089
 7745 Fit      -0.001692
 7746 Fit      -0.001181
 7747 Fit      -0.000554
 7748 Fit       0.000176
 7749 Fit       0.000984
 7750 Fit       0.001823
 7751 Fit       0.002619
 7752 Fit       0.003268
 7753 Fit       0.003642
 7754 Fit       0.003611
 7755 Fit       0.003094
 7756 Fit       0.002108
 7757 Fit       0.000094
 7758 Fit      -0.000927
 7759 Fit      -0.001855
 7760 Fit      -0.002503
 7761 Fit      -0.002723
 7762 Fit      -0.002450
 7763 Fit      -0.001750
 7764 Fit      -0.000814
 7765 Fit       0.000106
 7766 Fit       0.000783
 7767 Fit       0.001081
 7768 Fit       0.000975
 7769 Fit       0.000538
 7770 Fit      -0.000105
 7771 Fit      -0.000829
 7772 Fit      -0.001535
 7773 Fit      -0.002159
 7774 Fit      -0.002666
 7775 Fit      -0.003045
 7776 Fit      -0.003301
 7777 Fit      -0.003447
 7778 Fit      -0.003505
 7779 Fit      -0.003496
 7780 Fit      -0.003444
 7781 Fit      -0.003370
 7782 Fit      -0.003289
 7783 Fit      -0.003215
 7784 Fit      -0.003152
 7785 Fit      -0.003100
 7786 Fit      -0.003052
 7787 Fit      -0.002994
 7788 Fit      -0.002912
 7789 Fit      -0.002784
 7790 Fit      -0.002593
 7791 Fit      -0.002319
 7792 Fit      -0.001951
 7793 Fit      -0.001483
 7794 Fit      -0.000920
 7795 Fit      -0.000282
 7796 Fit       0.000394
 7797 Fit       0.001048
 7798 Fit       0.001598
 7799 Fit       0.001945
 7800 Fit       0.001994
 7801 Fit       0.001681
 7802 Fit       0.001016
 7803 Fit      -0.000523
 7804 Fit      -0.001230
 7805 Fit      -0.001845
 7806 Fit      -0.002214
 7807 Fit      -0.002239
 7808 Fit      -0.001920
 7809 Fit      -0.001366
 7810 Fit      -0.000764
 7811 Fit      -0.000304
 7812 Fit      -0.000116
 7813 Fit      -0.000235
 7814 Fit      -0.000609
 7815 Fit      -0.001140
 7816 Fit      -0.001724
 7817 Fit      -0.002279
 7818 Fit      -0.002751
 7819 Fit      -0.003114
 7820 Fit      -0.003363
 7821 Fit      -0.003509
 7822 Fit      -0.003569
 7823 Fit      -0.003567
 7824 Fit      -0.003526
 7825 Fit      -0.003465
 7826 Fit      -0.003399
 7827 Fit      -0.003336
 7828 Fit      -0.003277
 7829 Fit      -0.003215
 7830 Fit      -0.003137
 7831 Fit      -0.003024
 7832 Fit      -0.002857
 7833 Fit      -0.002618
 7834 Fit      -0.002295
 7835 Fit      -0.001882
 7836 Fit      -0.001390
 7837 Fit      -0.000845
 7838 Fit      -0.000291
 7839 Fit       0.000204
 7840 Fit       0.000558
 7841 Fit       0.000689
 7842 Fit       0.000540
 7843 Fit       0.000112
 7844 Fit      -0.001074
 7845 Fit      -0.001555
 7846 Fit      -0.001942
 7847 Fit      -0.002111
 7848 Fit      -0.002015
 7849 Fit      -0.001714
 7850 Fit      -0.001352
 7851 Fit      -0.001096
 7852 Fit      -0.001056
 7853 Fit      -0.001255
 7854 Fit      -0.001637
 7855 Fit      -0.002109
 7856 Fit      -0.002581
 7857 Fit      -0.002988
 7858 Fit      -0.003297
 7859 Fit      -0.003500
 7860 Fit      -0.003606
 7861 Fit      -0.003638
 7862 Fit      -0.003620
 7863 Fit      -0.003574
 7864 Fit      -0.003515
 7865 Fit      -0.003451
 7866 Fit      -0.003377
 7867 Fit      -0.003283
 7868 Fit      -0.003149
 7869 Fit      -0.002956
 7870 Fit      -0.002687
 7871 Fit      -0.002336
 7872 Fit      -0.001911
 7873 Fit      -0.001443
 7874 Fit      -0.000984
 7875 Fit      -0.000608
 7876 Fit      -0.000393
 7877 Fit      -0.000403
 7878 Fit      -0.000649
 7879 Fit      -0.001567
 7880 Fit      -0.001867
 7881 Fit      -0.002090
 7882 Fit      -0.002150
 7883 Fit      -0.002048
 7884 Fit      -0.001872
 7885 Fit      -0.001751
 7886 Fit      -0.001784
 7887 Fit      -0.001994
 7888 Fit      -0.002332
 7889 Fit      -0.002719
 7890 Fit      -0.003079
 7891 Fit      -0.003364
 7892 Fit      -0.003555
 7893 Fit      -0.003656
 7894 Fit      -0.003687
 7895 Fit      -0.003670
 7896 Fit      -0.003625
 7897 Fit      -0.003560
 7898 Fit      -0.003474
 7899 Fit      -0.003355
 7900 Fit      -0.003187
 7901 Fit      -0.002953
 7902 Fit      -0.002648
 7903 Fit      -0.002283
 7904 Fit      -0.001894
 7905 Fit      -0.001538
 7906 Fit      -0.001287
 7907 Fit      -0.001205
 7908 Fit      -0.001312
 7909 Fit      -0.002008
 7910 Fit      -0.002185
 7911 Fit      -0.002304
 7912 Fit      -0.002314
 7913 Fit      -0.002266
 7914 Fit      -0.002264
 7915 Fit      -0.002388
 7916 Fit      -0.002641
 7917 Fit      -0.002961
 7918 Fit      -0.003266
 7919 Fit      -0.003500
 7920 Fit      -0.003643
 7921 Fit      -0.003702
 7922 Fit      -0.003697
 7923 Fit      -0.003648
 7924 Fit      -0.003562
 7925 Fit      -0.003431
 7926 Fit      -0.003242
 7927 Fit      -0.002986
 7928 Fit      -0.002672
 7929 Fit      -0.002338
 7930 Fit      -0.002051
 7931 Fit      -0.001883
 7932 Fit      -0.001876
 7933 Fit      -0.002399
 7934 Fit      -0.002495
 7935 Fit      -0.002563
 7936 Fit      -0.002600
 7937 Fit      -0.002686
 7938 Fit      -0.002877
 7939 Fit      -0.003143
 7940 Fit      -0.003402
 7941 Fit      -0.003585
 7942 Fit      -0.003671
 7943 Fit      -0.003671
 7944 Fit      -0.003601
 7945 Fit      -0.003465
 7946 Fit      -0.003258
 7947 Fit      -0.002988
 7948 Fit      -0.002697
 7949 Fit      -0.002465
 7950 Fit      -0.002364
 7951 Fit      -0.002742
 7952 Fit      -0.002794
 7953 Fit      -0.002879
 7954 Fit      -0.003031
 7955 Fit      -0.003260
 7956 Fit      -0.003477
 7957 Fit      -0.003592
 7958 Fit      -0.003579
 7959 Fit      -0.003452
 7960 Fit      -0.003230
 7961 Fit      -0.002972
 7962 Fit      -0.002785
 7963 Fit      -0.003034
 7964 Fit      -0.003103
 7965 Fit      -0.003304
 7966 Fit      -0.003459
 7967 Fit      -0.003389
 7968 Fit      -0.003163
 7969 Fit      -0.003273
 7970 Fit      -0.005642
 7971 Fit      -0.006783
 7972 Fit      -0.005102
 7973 Fit      -0.006385
 7974 Fit      -0.007215
 7975 Fit      -0.008008
 7976 Fit      -0.008532
 7977 Fit      -0.006647
 7978 Fit      -0.006948
 7979 Fit      -0.007268
 7980 Fit      -0.007871
 7981 Fit      -0.008702
 7982 Fit      -0.009523
 7983 Fit      -0.010044
 7984 Fit      -0.008190
 7985 Fit      -0.007651
 7986 Fit      -0.007158
 7987 Fit      -0.007076
 7988 Fit      -0.007472
 7989 Fit      -0.008277
 7990 Fit      -0.009326
 7991 Fit      -0.010382
 7992 Fit      -0.011202
 7993 Fit      -0.008048
 7994 Fit      -0.006967
 7995 Fit      -0.006481
 7996 Fit      -0.006541
 7997 Fit      -0.007082
 7998 Fit      -0.008024
 7999 Fit      -0.006008
 8000 Fit      -0.005395
 8001 Fit      -0.005370
 8002 Fit      -0.005870
 8003 Fit      -0.004533
 8004 Fit      -0.003844
 8005 Fit      -0.003714
 8006 Fit      -0.002460
 8007 Fit      -0.001758
 8008 Fit      -0.000025
 8009 Fit      -0.001811
 8010 Fit      -0.001303
 8011 Fit       0.000067
 8012 Fit       0.001846
 8013 Fit       0.001244
 8014 Fit      -0.000032
 8015 Fit       0.000040
 8016 Fit       0.000905
 8017 Fit       0.003379
 8018 Fit       0.001263
 8019 Fit       0.000319
 8020 Fit       0.000384
 8021 Fit       0.001844
 8022 Fit       0.000493
 8023 Fit      -0.000188
 8024 Fit      -0.003137
 8025 Fit      -0.000190
 8026 Fit       0.002126
 8027 Fit       0.003351
 8028 Fit       0.003156
 8029 Fit       0.000058
 8030 Fit      -0.000830
 8031 Fit      -0.002756
 8032 Fit      -0.000482
 8033 Fit       0.000487
 8034 Fit      -0.011050
 8035 Fit      -0.016724
 8036 Fit      -0.012832
 8037 Fit      -0.009538
 8038 Fit      -0.018210
 8039 Fit      -0.012927
 8040 Fit      -0.009144
 8041 Fit      -0.006763
 8042 Fit      -0.016929
 8043 Fit      -0.011466
 8044 Fit      -0.007716
 8045 Fit      -0.005316
 8046 Fit      -0.014512
 8047 Fit      -0.009489
 8048 Fit      -0.005985
 8049 Fit      -0.003605
 8050 Fit      -0.016189
 8051 Fit      -0.010251
 8052 Fit      -0.006048
 8053 Fit      -0.003014
 8054 Fit      -0.000814
 8055 Fit      -0.017502
 8056 Fit      -0.010954
 8057 Fit      -0.006261
 8058 Fit      -0.002748
 8059 Fit       0.000025
 8060 Fit      -0.017206
 8061 Fit      -0.010599
 8062 Fit      -0.005785
 8063 Fit      -0.002068
 8064 Fit       0.001039
 8065 Fit      -0.014414
 8066 Fit      -0.008392
 8067 Fit      -0.003867
 8068 Fit      -0.000189
 8069 Fit       0.003165
 8070 Fit      -0.010525
 8071 Fit      -0.005421
 8072 Fit      -0.001353
 8073 Fit       0.002249
 8074 Fit      -0.011967
 8075 Fit      -0.006860
 8076 Fit      -0.002726
 8077 Fit       0.000854
 8078 Fit      -0.006486
 8079 Fit      -0.002770
 8080 Fit       0.000579
 8081 Fit      -0.005136
 8082 Fit      -0.002543
 8083 Fit       0.000165
 8084 Fit      -0.002553
 8085 Fit       0.001142
 8086 Fit      -0.001998
 8087 Fit       0.002227
 8088 Fit       0.005626
 8089 Fit       0.007731
 8090 Fit      -0.000914
 8091 Fit      -0.000015
 8092 Fit      -0.002431
 8093 Fit      -0.003645
 8094 Fit      -0.003566
 8095 Fit      -0.002060
 8096 Fit       0.000780
 8097 Fit      -0.003657
 8098 Fit      -0.005258
 8099 Fit      -0.006155
 8100 Fit      -0.006339
 8101 Fit      -0.005742
 8102 Fit      -0.007985
 8103 Fit      -0.008569
 8104 Fit      -0.008688
 8105 Fit       0.001632
 8106 Fit       0.011965
 8107 Fit       0.013752
 8108 Fit       0.014623
 8109 Fit       0.015170
 8110 Fit       0.017795
 8111 Fit       0.016861
 8112 Fit       0.015726
 8113 Fit       0.018400
 8114 Fit       0.019242
 8115 Fit       0.018653
 8116 Fit       0.022216
 8117 Fit       0.020644
 8118 Fit       0.025354
 8119 Fit       0.022837
 8120 Fit       0.001496
 8121 Fit       0.000164
 8122 Fit      -0.000212
 8123 Fit       0.000971
 8124 Fit       0.002458
 8125 Fit       0.003030
 8126 Fit       0.001903
 8127 Fit      -0.001629
 8128 Fit      -0.002563
 8129 Fit      -0.002249
 8130 Fit      -0.001091
 8131 Fit       0.000296
 8132 Fit       0.001698
 8133 Fit       0.003111
 8134 Fit       0.004241
 8135 Fit       0.004557
 8136 Fit       0.003811
 8137 Fit       0.002219
 8138 Fit       0.000209
 8139 Fit      -0.004006
 8140 Fit      -0.005353
 8141 Fit      -0.005592
 8142 Fit      -0.004773
 8143 Fit      -0.003357
 8144 Fit      -0.001865
 8145 Fit      -0.000555
 8146 Fit       0.000652
 8147 Fit       0.001974
 8148 Fit       0.002474
 8149 Fit       0.000337
 8150 Fit      -0.001937
 8151 Fit      -0.007137
 8152 Fit      -0.009053
 8153 Fit      -0.009793
 8154 Fit      -0.009223
 8155 Fit      -0.007660
 8156 Fit      -0.005681
 8157 Fit      -0.003823
 8158 Fit      -0.002369
 8159 Fit      -0.001276
 8160 Fit      -0.000271
 8161 Fit       0.000751
 8162 Fit      -0.001806
 8163 Fit      -0.004541
 8164 Fit      -0.011266
 8165 Fit      -0.014074
 8166 Fit      -0.015481
 8167 Fit      -0.015156
 8168 Fit      -0.013335
 8169 Fit      -0.010656
 8170 Fit      -0.007857
 8171 Fit      -0.005513
 8172 Fit      -0.003894
 8173 Fit      -0.002922
 8174 Fit      -0.002246
 8175 Fit      -0.001152
 8176 Fit      -0.004276
 8177 Fit      -0.007769
 8178 Fit      -0.018008
 8179 Fit      -0.013928
 8180 Fit      -0.010132
 8181 Fit      -0.007208
 8182 Fit      -0.005412
 8183 Fit      -0.003501
 8184 Fit      -0.007345
 8185 Fit      -0.011913
 8186 Fit      -0.015073
 8187 Fit      -0.010337
 8188 Fit       0.004773
 8189 Fit       0.005461
 8190 Fit       0.004903
 8191 Fit       0.003710
 8192 Fit       0.004822
 8193 Fit       0.006044
 8194 Fit       0.006679
 8195 Fit       0.006340
 8196 Fit       0.005249
 8197 Fit       0.002329
 8198 Fit       0.003212
 8199 Fit       0.004617
 8200 Fit       0.006224
 8201 Fit       0.005585
 8202 Fit       0.004060
 8203 Fit       0.000437
 8204 Fit       0.000702
 8205 Fit       0.001581
 8206 Fit       0.003126
 8207 Fit       0.005137
 8208 Fit       0.006234
 8209 Fit       0.004424
 8210 Fit       0.002658
 8211 Fit       0.004448
 8212 Fit       0.004649
 8213 Fit       0.002704
 8214 Fit       0.005504
 8215 Fit       0.003327
 8216 Fit       0.001139
 8217 Fit      -0.001197
 8218 Fit       0.004096
 8219 Fit       0.001785
 8220 Fit      -0.000598
 8221 Fit      -0.003344
 8222 Fit       0.005302
 8223 Fit       0.007179
 8224 Fit       0.007520
 8225 Fit       0.008035
 8226 Fit       0.007547
 8227 Fit       0.007756
 8228 Fit       0.008644
 8229 Fit       0.009040
 8230 Fit       0.008778
 8231 Fit       0.007952
 8232 Fit       0.006884
 8233 Fit       0.007910
 8234 Fit       0.009052
 8235 Fit       0.009836
 8236 Fit       0.010143
 8237 Fit       0.009975
 8238 Fit       0.009369
 8239 Fit       0.008397
 8240 Fit       0.007206
 8241 Fit       0.007226
 8242 Fit       0.008829
 8243 Fit       0.010120
 8244 Fit       0.010935
 8245 Fit       0.011294
 8246 Fit       0.011259
 8247 Fit       0.010867
 8248 Fit       0.010135
 8249 Fit       0.009087
 8250 Fit       0.007790
 8251 Fit       0.006381
 8252 Fit       0.011030
 8253 Fit       0.012020
 8254 Fit       0.012486
 8255 Fit       0.012582
 8256 Fit       0.012385
 8257 Fit       0.011911
 8258 Fit       0.011145
 8259 Fit       0.010074
 8260 Fit       0.008712
 8261 Fit       0.007127
 8262 Fit       0.013978
 8263 Fit       0.014016
 8264 Fit       0.013858
 8265 Fit       0.013530
 8266 Fit       0.013003
 8267 Fit       0.012232
 8268 Fit       0.011171
 8269 Fit       0.009797
 8270 Fit       0.008122
 8271 Fit       0.015760
 8272 Fit       0.015381
 8273 Fit       0.014987
 8274 Fit       0.014498
 8275 Fit       0.013826
 8276 Fit       0.012884
 8277 Fit       0.011596
 8278 Fit       0.009907
 8279 Fit       0.007812
 8280 Fit       0.017163
 8281 Fit       0.016586
 8282 Fit       0.016093
 8283 Fit       0.015527
 8284 Fit       0.014756
 8285 Fit       0.013656
 8286 Fit       0.012108
 8287 Fit       0.010009
 8288 Fit       0.018633
 8289 Fit       0.017988
 8290 Fit       0.017507
 8291 Fit       0.016972
 8292 Fit       0.016203
 8293 Fit       0.015022
 8294 Fit       0.013228
 8295 Fit       0.019907
 8296 Fit       0.019478
 8297 Fit       0.019133
 8298 Fit       0.018604
 8299 Fit       0.017623
 8300 Fit       0.021812
 8301 Fit       0.021777
 8302 Fit       0.021768
 8303 Fit       0.024680
 8304 Fit       0.025447
 8305 Fit      -0.004889
 8306 Fit       0.003402
 8307 Fit       0.001186
 8308 Fit      -0.000949
 8309 Fit      -0.003427
 8310 Fit       0.006911
 8311 Fit       0.004477
 8312 Fit       0.002445
 8313 Fit       0.000652
 8314 Fit      -0.001198
 8315 Fit       0.008159
 8316 Fit       0.005900
 8317 Fit       0.004041
 8318 Fit       0.002509
 8319 Fit       0.001138
 8320 Fit       0.012868
 8321 Fit       0.010320
 8322 Fit       0.008125
 8323 Fit       0.006308
 8324 Fit       0.004865
 8325 Fit       0.003727
 8326 Fit       0.002734
 8327 Fit       0.017749
 8328 Fit       0.015229
 8329 Fit       0.012889
 8330 Fit       0.010801
 8331 Fit       0.009031
 8332 Fit       0.007619
 8333 Fit       0.006556
 8334 Fit       0.005775
 8335 Fit       0.020712
 8336 Fit       0.018532
 8337 Fit       0.016374
 8338 Fit       0.014345
 8339 Fit       0.012549
 8340 Fit       0.011066
 8341 Fit       0.009929
 8342 Fit       0.009119
 8343 Fit       0.008565
 8344 Fit       0.026151
 8345 Fit       0.024733
 8346 Fit       0.023051
 8347 Fit       0.021163
 8348 Fit       0.019191
 8349 Fit       0.017284
 8350 Fit       0.015588
 8351 Fit       0.014209
 8352 Fit       0.013184
 8353 Fit       0.020652
 8354 Fit       0.019095
 8355 Fit       0.017879
 8356 Fit       0.007966
 8357 Fit       0.008055
 8358 Fit       0.007229
 8359 Fit       0.008454
 8360 Fit       0.011543
 8361 Fit       0.012311
 8362 Fit       0.013487
 8363 Fit       0.016662
 8364 Fit       0.019349
 8365 Fit       0.025857
 8366 Fit       0.024276
 8367 Fit       0.027040
 8368 Fit       0.026280
 8369 Fit       0.025421
 8370 Fit       0.024450
 8371 Fit       0.023377
 8372 Fit       0.022241
 8373 Fit       0.021107
 8374 Fit       0.026147
 8375 Fit       0.026280
 8376 Fit       0.026131
 8377 Fit       0.025773
 8378 Fit       0.025257
 8379 Fit       0.024640
 8380 Fit       0.023998
 8381 Fit       0.023440
 8382 Fit       0.023125
 8383 Fit       0.024664
 8384 Fit       0.025646
 8385 Fit       0.026135
 8386 Fit       0.026290
 8387 Fit       0.026215
 8388 Fit       0.026004
 8389 Fit       0.025762
 8390 Fit       0.025640
 8391 Fit       0.022131
 8392 Fit       0.024185
 8393 Fit       0.025485
 8394 Fit       0.026264
 8395 Fit       0.026686
 8396 Fit       0.026882
 8397 Fit       0.026987
 8398 Fit       0.027175
 8399 Fit       0.022134
 8400 Fit       0.024185
 8401 Fit       0.025594
 8402 Fit       0.026528
 8403 Fit       0.027135
 8404 Fit       0.027565
 8405 Fit       0.027995
 8406 Fit       0.013585
 8407 Fit       0.017174
 8408 Fit       0.020375
 8409 Fit       0.022935
 8410 Fit       0.024840
 8411 Fit       0.026192
 8412 Fit       0.027139
 8413 Fit       0.027854
 8414 Fit       0.028554
 8415 Fit       0.013568
 8416 Fit       0.016078
 8417 Fit       0.018945
 8418 Fit       0.021644
 8419 Fit       0.023879
 8420 Fit       0.025584
 8421 Fit       0.026835
 8422 Fit       0.027788
 8423 Fit       0.028662
 8424 Fit       0.017437
 8425 Fit       0.019537
 8426 Fit       0.021930
 8427 Fit       0.024096
 8428 Fit       0.025809
 8429 Fit       0.027087
 8430 Fit       0.028084
 8431 Fit       0.020020
 8432 Fit       0.021452
 8433 Fit       0.023568
 8434 Fit       0.025485
 8435 Fit       0.026866
 8436 Fit       0.023214
 8437 Fit       0.025102
 -----------------------------------------------------------------
 Leave Link  602 at Wed Nov 29 20:10:09 2017, MaxMem=  2147483648 cpu:         1.5

 Test job not archived.
 1\1\GINC-LAC-137\FOpt\RHF\6-31G(d)\C9H10Br1N1O1\SONGLIN3\29-Nov-2017\0
 \\#HF/6-31G* SCF=tight Test Pop=MK iop(6/33=2) iop(6/42=6) opt\\remark
  line goes here\\0,1\H,18.3478931472,-12.8374395548,20.3138031107\C,17
 .8584078259,-12.1271635537,20.9646357822\H,18.5010675008,-11.267920179
 9,21.1170599265\H,17.690337212,-12.6055192701,21.9246675298\C,16.52015
 46,-11.7564172664,20.362381988\O,15.8999427842,-12.5233160501,19.67583
 70723\H,10.9961015234,-10.7304160033,24.0519524778\H,11.8372028296,-12
 .6615324781,22.7672117603\C,11.7454704296,-10.5974285212,23.2955180445
 \C,12.2251625039,-11.6786634552,22.5689716114\Br,11.6072543435,-7.8448
 756276,24.0025705209\C,12.2485262603,-9.3427842325,23.0236719151\C,13.
 1884668988,-11.5011500563,21.5941383464\H,13.5537431541,-12.3421973537
 ,21.0336371159\C,13.2139707785,-9.1490978703,22.049477397\C,13.6936927
 318,-10.2307888572,21.3274956025\H,13.5817580903,-8.158169942,21.85749
 031\H,14.4936518331,-10.5598181044,19.3647729451\C,14.7618150768,-10.0
 341193026,20.2682513919\H,14.8474050781,-8.9818548007,20.0249451292\N,
 16.0719313743,-10.5141423857,20.6658642929\H,16.5740440238,-9.98218513
 44,21.3396457295\\Version=ES64L-G09RevD.01\State=1-A\HF=-3045.862061\R
 MSD=6.981e-09\RMSF=8.341e-07\Dipole=0.8583796,0.3146241,0.457113\Quadr
 upole=8.1586257,-2.6453763,-5.5132494,5.0047385,1.6124016,-8.3390786\P
 G=C01 [X(C9H10Br1N1O1)]\\@



 WE LOSE BECAUSE WE WIN

 GAMBLERS,

 RECOLLECTING WHICH,

 TOSS THEIR DICE AGAIN....


                          EMILY DICKINSON  BOLTS OF MELODY NO. 533
 Job cpu time:       0 days  0 hours 11 minutes 12.2 seconds.
 File lengths (MBytes):  RWF=    134 Int=      0 D2E=      0 Chk=      5 Scr=      2
 Normal termination of Gaussian 09 at Wed Nov 29 20:10:09 2017.
